 Gaussian 16, Revision C.01,
 Gaussian 16:  ES64L-G16RevC.01  3-Jul-2019

 --------------------------------------------------------
 # m06/genecp scf=tight int=ultrafine 5d opt freq=noraman
 --------------------------------------------------------

 ------
 OPT-TS
 ------
 Symbolic Z-matrix:
 Charge =  0 Multiplicity = 1

 SCF Done:  E(RM06) =  -1010.60555952     A.U. after   24 cycles
 SCF Done:  E(RM06) =  -1010.61983828     A.U. after   18 cycles
 SCF Done:  E(RM06) =  -1010.62441048     A.U. after   16 cycles
 SCF Done:  E(RM06) =  -1010.62722869     A.U. after   16 cycles
 SCF Done:  E(RM06) =  -1010.62779604     A.U. after   15 cycles
 SCF Done:  E(RM06) =  -1010.62886065     A.U. after   16 cycles
 SCF Done:  E(RM06) =  -1010.62608882     A.U. after   17 cycles
 SCF Done:  E(RM06) =  -1010.64138322     A.U. after   16 cycles
 SCF Done:  E(RM06) =  -1010.64356944     A.U. after   14 cycles
 SCF Done:  E(RM06) =  -1010.62855665     A.U. after   19 cycles
 SCF Done:  E(RM06) =  -1010.65331605     A.U. after   13 cycles
 SCF Done:  E(RM06) =  -1010.65333282     A.U. after   14 cycles
 SCF Done:  E(RM06) =  -1010.65333499     A.U. after   12 cycles
 SCF Done:  E(RM06) =  -1010.65333641     A.U. after   11 cycles
 SCF Done:  E(RM06) =  -1010.65333695     A.U. after   10 cycles
 SCF Done:  E(RM06) =  -1010.65333705     A.U. after   10 cycles
 SCF Done:  E(RM06) =  -1010.65333717     A.U. after    9 cycles
 SCF Done:  E(RM06) =  -1010.65333708     A.U. after   10 cycles
 SCF Done:  E(RM06) =  -1010.65333708     A.U. after    8 cycles
 Optimization completed.
    -- Stationary point found.
 Normal termination of Gaussian 16 at Thu Nov  2 20:20:39 2023.

 ----------------------------------------------------------------
 #N Geom=AllCheck Guess=TCheck SCRF=Check GenChk RM06/GenECP Freq
 ----------------------------------------------------------------

 Structure from the checkpoint file:  "/mnt/lustre/scratch/nvme/SLURM/4748278/usccqdma.u69LzAw5Kf/Gau-1414082.chk"
 ------
 OPT-TS
 ------
 Charge =  0 Multiplicity = 1

                         Standard orientation:
 ---------------------------------------------------------------------
 Center     Atomic      Atomic             Coordinates (Angstroms)
 Number     Number       Type             X           Y           Z
 ---------------------------------------------------------------------
      1          6           0       -2.461928    1.317413   -0.045978
      2          6           0       -0.326168    2.286224   -0.033430
      3          6           0       -0.870293    3.552905   -0.078694
      4          6           0       -2.253088    3.721176   -0.110065
      5          6           0       -3.039060    2.583864   -0.092181
      6          6           0       -3.248378    0.086992   -0.019688
      7          6           0       -3.137425   -2.225369    0.065212
      8          6           0       -4.517647   -2.349796    0.045991
      9          6           0       -5.283231   -1.188330   -0.010434
     10          6           0       -4.643742    0.040963   -0.043418
     11          1           0        0.747492    2.122107   -0.010550
     12          1           0       -2.703257    4.709998   -0.146737
     13          1           0       -4.122571    2.670944   -0.113597
     14          1           0       -2.488576   -3.100049    0.108061
     15          1           0       -6.369953   -1.239450   -0.028463
     16          1           0       -5.229573    0.955720   -0.087588
     17          7           0       -1.091857    1.158941   -0.018701
     18          7           0       -2.512895   -1.043750    0.032882
     19         77           0       -0.324195   -0.614298    0.036640
     20          8           0        2.406443    0.953760   -0.100590
     21          5           0        1.662303   -0.226432    0.022883
     22          8           0        2.542528   -1.313630    0.127871
     23          6           0        3.781417    0.650664    0.171295
     24          6           0        3.861521   -0.857414   -0.195593
     25          6           0        4.073000   -1.094675   -1.686108
     26          1           0        3.900795   -2.156987   -1.899902
     27          1           0        3.360673   -0.511532   -2.283945
     28          1           0        5.093460   -0.840002   -2.003903
     29          6           0        4.876145   -1.654204    0.600421
     30          1           0        4.863465   -2.701461    0.272031
     31          1           0        5.892404   -1.262992    0.445404
     32          1           0        4.652675   -1.636337    1.672612
     33          6           0        4.019778    0.913482    1.653193
     34          1           0        3.403385    0.251619    2.274859
     35          1           0        5.074013    0.778597    1.930940
     36          1           0        3.735862    1.949333    1.878434
     37          6           0        4.665627    1.557783   -0.661266
     38          1           0        5.724641    1.283955   -0.547547
     39          1           0        4.404185    1.512476   -1.724039
     40          1           0        4.549292    2.597794   -0.329255
     41          1           0       -4.978898   -3.333645    0.074219
     42          1           0       -0.195672    4.405562   -0.089765
 ---------------------------------------------------------------------

 SCF Done:  E(RM06) =  -1010.65333708     A.U. after    1 cycles

 The electronic state is 1-A.
 Alpha  occ. eigenvalues --  -19.19308 -19.18922 -14.47620 -14.44153 -10.31532
 Alpha  occ. eigenvalues --  -10.30825 -10.30464 -10.28652 -10.28592 -10.28588
 Alpha  occ. eigenvalues --  -10.28404 -10.28045 -10.27631 -10.27619 -10.27227
 Alpha  occ. eigenvalues --  -10.26798 -10.22264 -10.22028 -10.21762 -10.21586
 Alpha  occ. eigenvalues --   -6.76544  -3.58884  -2.03371  -2.00656  -1.98384
 Alpha  occ. eigenvalues --   -1.04949  -0.99746  -0.98043  -0.97055  -0.83947
 Alpha  occ. eigenvalues --   -0.83083  -0.82381  -0.79601  -0.76849  -0.74104
 Alpha  occ. eigenvalues --   -0.69703  -0.68620  -0.67675  -0.66990  -0.64151
 Alpha  occ. eigenvalues --   -0.63114  -0.60781  -0.57260  -0.53670  -0.53065
 Alpha  occ. eigenvalues --   -0.52869  -0.52275  -0.50610  -0.49176  -0.47054
 Alpha  occ. eigenvalues --   -0.46541  -0.45883  -0.45585  -0.45458  -0.45208
 Alpha  occ. eigenvalues --   -0.44114  -0.43550  -0.42734  -0.42174  -0.40216
 Alpha  occ. eigenvalues --   -0.39405  -0.39225  -0.38983  -0.38691  -0.38103
 Alpha  occ. eigenvalues --   -0.37043  -0.36426  -0.35950  -0.35246  -0.34978
 Alpha  occ. eigenvalues --   -0.34129  -0.33086  -0.32273  -0.31531  -0.31163
 Alpha  occ. eigenvalues --   -0.30666  -0.29380  -0.26240  -0.25493  -0.23185
 Alpha  occ. eigenvalues --   -0.19958  -0.18163  -0.16976  -0.15917
 Alpha virt. eigenvalues --   -0.06903  -0.03796  -0.03386  -0.02478   0.01265
 Alpha virt. eigenvalues --    0.02480   0.02613   0.04094   0.08131   0.09569
 Alpha virt. eigenvalues --    0.10147   0.10813   0.12247   0.12448   0.12790

 Mulliken charges:
               1
     1  C    0.308893
     2  C    0.040576
     3  C   -0.173812
     4  C   -0.150257
     5  C   -0.175738
     6  C    0.301924
     7  C    0.030517
     8  C   -0.170199
     9  C   -0.141967
    10  C   -0.181076
    11  H    0.251867
    12  H    0.175069
    13  H    0.164709
    14  H    0.185996
    15  H    0.179722
    16  H    0.169921
    17  N   -0.641133
    18  N   -0.524836
    19  Ir   0.173727
    20  O   -0.543105
    21  B    0.366086
    22  O   -0.530939
    23  C    0.310377
    24  C    0.302800
    25  C   -0.511600
    26  H    0.170081
    27  H    0.177891
    28  H    0.145382
    29  C   -0.509380
    30  H    0.168049
    31  H    0.146044
    32  H    0.171043
    33  C   -0.510991
    34  H    0.180284
    35  H    0.147543
    36  H    0.163368
    37  C   -0.509543
    38  H    0.148873
    39  H    0.171227
    40  H    0.162552
    41  H    0.179571
    42  H    0.180482
 Sum of Mulliken charges =  -0.00000

 Dipole moment (field-independent basis, Debye):
    X=             -4.9780    Y=              1.5033    Z=             -0.1200  Tot=              5.2015
 Quadrupole moment (field-independent basis, Debye-Ang):
   XX=           -110.8549   YY=           -127.1513   ZZ=           -152.8308
   XY=              2.3918   XZ=              0.1600   YZ=              0.0378

  Exact polarizability:     377.035       4.501     291.890       1.236      -1.698     137.581
 Approx polarizability:     528.351     -20.421     509.969       4.183      -7.986     225.798

                      1                      2                      3
                      A                      A                      A
 Frequencies --     18.3128                19.4855                50.8588
 Red. masses --      5.4029                 3.9465                 4.7136
 Frc consts  --      0.0011                 0.0009                 0.0072
 IR Inten    --      1.1871                 0.0619                 0.8693

                      4                      5                      6
                      A                      A                      A
 Frequencies --     59.3792                79.5580               104.1402
 Red. masses --      4.6029                 4.5503                 4.0148
 Frc consts  --      0.0096                 0.0170                 0.0257
 IR Inten    --      1.0909                 0.0886                 0.0032

                      7                      8                      9
                      A                      A                      A
 Frequencies --    124.0045               135.2884               152.9166
 Red. masses --      3.7032                 6.5495                 5.9432
 Frc consts  --      0.0336                 0.0706                 0.0819
 IR Inten    --      0.0945                 0.8695                 1.6798

                     10                     11                     12
                      A                      A                      A
 Frequencies --    165.9817               198.3807               231.9893
 Red. masses --      4.9425                 3.9367                 1.2991
 Frc consts  --      0.0802                 0.0913                 0.0412
 IR Inten    --      3.6694                 0.9801                 0.1380

                     13                     14                     15
                      A                      A                      A
 Frequencies --    243.8750               248.9697               252.4643
 Red. masses --      1.3468                 4.0613                 3.7762
 Frc consts  --      0.0472                 0.1483                 0.1418
 IR Inten    --      1.3785                 0.3820                 1.8287

                     16                     17                     18
                      A                      A                      A
 Frequencies --    274.3462               296.9267               303.9576
 Red. masses --      5.4824                 2.3857                 2.1137
 Frc consts  --      0.2431                 0.1239                 0.1151
 IR Inten    --      0.9047                 0.8866                 0.4638

                     19                     20                     21
                      A                      A                      A
 Frequencies --    316.7185               343.1575               368.6560
 Red. masses --      1.2092                 1.1267                 2.1670
 Frc consts  --      0.0715                 0.0782                 0.1735
 IR Inten    --      0.0016                 0.0933                 1.1831

                     22                     23                     24
                      A                      A                      A
 Frequencies --    375.4070               380.8983               405.8237
 Red. masses --      2.8183                 4.1053                 3.1476
 Frc consts  --      0.2340                 0.3509                 0.3054
 IR Inten    --      1.3124                 0.7004                 0.8317

                     25                     26                     27
                      A                      A                      A
 Frequencies --    409.3155               430.6829               439.3618
 Red. masses --      2.7240                 3.3548                 3.6833
 Frc consts  --      0.2689                 0.3666                 0.4189
 IR Inten    --      0.6020                10.5004                 0.4084

                     28                     29                     30
                      A                      A                      A
 Frequencies --    453.1983               479.1735               494.6351
 Red. masses --      4.2161                 4.3752                 2.8985
 Frc consts  --      0.5102                 0.5919                 0.4178
 IR Inten    --      2.4104                 4.1653                 2.0345

                     31                     32                     33
                      A                      A                      A
 Frequencies --    529.3973               560.5294               588.0890
 Red. masses --      3.3740                 3.0261                 4.2024
 Frc consts  --      0.5571                 0.5602                 0.8563
 IR Inten    --      2.2088                 0.1302                 4.4611

                     34                     35                     36
                      A                      A                      A
 Frequencies --    596.5261               626.3476               653.6757
 Red. masses --      6.5299                 7.3243                 6.7888
 Frc consts  --      1.3690                 1.6930                 1.7091
 IR Inten    --      5.9503                 2.6815                 4.0989

                     37                     38                     39
                      A                      A                      A
 Frequencies --    675.3120               689.2650               714.0151
 Red. masses --      6.5692                 3.2163                 4.3532
 Frc consts  --      1.7651                 0.9003                 1.3076
 IR Inten    --      7.4251                 4.2581                13.2879

                     40                     41                     42
                      A                      A                      A
 Frequencies --    739.2009               759.4492               778.1488
 Red. masses --      1.7151                 1.2427                 5.8222
 Frc consts  --      0.5521                 0.4223                 2.0771
 IR Inten    --      2.4743                72.4577                 6.9957

                     43                     44                     45
                      A                      A                      A
 Frequencies --    794.8535               801.2466               875.7576
 Red. masses --     10.8971                 2.5092                 1.4639
 Frc consts  --      4.0563                 0.9491                 0.6615
 IR Inten    --     12.8828                 0.9817                 0.1340

                     46                     47                     48
                      A                      A                      A
 Frequencies --    878.4421               885.8122               899.0164
 Red. masses --      3.1355                 1.3016                 2.1223
 Frc consts  --      1.4256                 0.6018                 1.0106
 IR Inten    --      3.6864                 0.1645                14.2377

                     49                     50                     51
                      A                      A                      A
 Frequencies --    936.5297               939.8990               949.0579
 Red. masses --      1.5085                 1.4208                 1.3327
 Frc consts  --      0.7795                 0.7395                 0.7072
 IR Inten    --      0.0631                 0.1324                 0.0813

                     52                     53                     54
                      A                      A                      A
 Frequencies --    957.5432               977.6551               988.3172
 Red. masses --      1.3932                 1.6905                 1.3000
 Frc consts  --      0.7526                 0.9520                 0.7482
 IR Inten    --      0.1271                 2.8956                 0.0474

                     55                     56                     57
                      A                      A                      A
 Frequencies --    994.1399               994.9166              1006.5114
 Red. masses --      1.7381                 1.3024                 1.3375
 Frc consts  --      1.0121                 0.7596                 0.7983
 IR Inten    --      5.4757                 0.1112                 0.1502

                     58                     59                     60
                      A                      A                      A
 Frequencies --   1014.3114              1019.0816              1040.7148
 Red. masses --      5.3979                 1.4488                 7.1263
 Frc consts  --      3.2720                 0.8865                 4.5476
 IR Inten    --     11.9314                 0.7698                75.2169

                     61                     62                     63
                      A                      A                      A
 Frequencies --   1053.1720              1084.8805              1091.4168
 Red. masses --      6.9350                 1.8020                 2.0178
 Frc consts  --      4.5320                 1.2496                 1.4162
 IR Inten    --     28.5730                13.6735                24.5182

                     64                     65                     66
                      A                      A                      A
 Frequencies --   1113.9500              1125.6689              1146.1399
 Red. masses --      3.9008                 1.5810                 1.5596
 Frc consts  --      2.8519                 1.1803                 1.2071
 IR Inten    --     70.4233                17.9484                80.0595

                     67                     68                     69
                      A                      A                      A
 Frequencies --   1164.0067              1172.5139              1179.8118
 Red. masses --      1.3003                 3.7339                 1.1547
 Frc consts  --      1.0380                 3.0245                 0.9470
 IR Inten    --    304.6181              1172.5822                 1.5604

                     70                     71                     72
                      A                      A                      A
 Frequencies --   1199.6215              1207.3841              1245.0807
 Red. masses --      2.7235                 2.9925                 3.9058
 Frc consts  --      2.3092                 2.5703                 3.5675
 IR Inten    --     28.5531                 3.6719               103.8597

                     73                     74                     75
                      A                      A                      A
 Frequencies --   1258.7028              1280.1500              1292.9913
 Red. masses --      3.1190                 2.9157                 1.7013
 Frc consts  --      2.9114                 2.8152                 1.6758
 IR Inten    --      4.5575                 1.1374                 9.0338

                     76                     77                     78
                      A                      A                      A
 Frequencies --   1303.6867              1324.1029              1328.1872
 Red. masses --      2.9348                 3.0427                 1.6985
 Frc consts  --      2.9389                 3.1431                 1.7654
 IR Inten    --     37.8347                 0.8393                 2.8274

                     79                     80                     81
                      A                      A                      A
 Frequencies --   1347.5372              1348.3356              1401.3439
 Red. masses --      5.4726                 2.8786                 1.3505
 Frc consts  --      5.8550                 3.0833                 1.5626
 IR Inten    --      4.4395                 3.2774                27.1458

                     82                     83                     84
                      A                      A                      A
 Frequencies --   1403.2963              1410.9731              1419.7040
 Red. masses --      1.4655                 1.3243                 1.2783
 Frc consts  --      1.7003                 1.5534                 1.5180
 IR Inten    --      5.0721                16.5326                16.4438

                     85                     86                     87
                      A                      A                      A
 Frequencies --   1455.9280              1464.3226              1471.6738
 Red. masses --      1.9771                 1.0567                 1.0511
 Frc consts  --      2.4693                 1.3350                 1.3412
 IR Inten    --     21.4962                 0.2113                 1.4126

                     88                     89                     90
                      A                      A                      A
 Frequencies --   1477.8487              1480.5164              1480.6359
 Red. masses --      1.0505                 1.1167                 2.3965
 Frc consts  --      1.3518                 1.4421                 3.0954
 IR Inten    --      2.8620                 7.5569                 4.9362

                     91                     92                     93
                      A                      A                      A
 Frequencies --   1495.3010              1496.3816              1500.0198
 Red. masses --      1.0472                 2.2088                 1.0732
 Frc consts  --      1.3796                 2.9140                 1.4227
 IR Inten    --      4.6947                60.6222                 3.1299

                     94                     95                     96
                      A                      A                      A
 Frequencies --   1503.6037              1517.1616              1522.4828
 Red. masses --      1.0734                 1.0598                 3.3800
 Frc consts  --      1.4298                 1.4372                 4.6161
 IR Inten    --      4.5097                 4.3636                35.9273

                     97                     98                     99
                      A                      A                      A
 Frequencies --   1597.6867              1636.3740              1660.5246
 Red. masses --      5.1614                 6.6297                 6.0803
 Frc consts  --      7.7625                10.4595                 9.8779
 IR Inten    --      3.0062                18.0312                14.5028

                    100                    101                    102
                      A                      A                      A
 Frequencies --   1671.8613              3030.5522              3032.0982
 Red. masses --      5.9125                 1.0371                 1.0381
 Frc consts  --      9.7370                 5.6119                 5.6232
 IR Inten    --     21.0996                 3.1604                22.5978

                    103                    104                    105
                      A                      A                      A
 Frequencies --   3033.7672              3038.0786              3110.5049
 Red. masses --      1.0373                 1.0381                 1.1017
 Frc consts  --      5.6250                 5.6450                 6.2801
 IR Inten    --     21.8213                55.1376                 9.8921

                    106                    107                    108
                      A                      A                      A
 Frequencies --   3112.3455              3119.9120              3122.1505
 Red. masses --      1.1012                 1.1025                 1.1020
 Frc consts  --      6.2847                 6.3230                 6.3289
 IR Inten    --      9.6738                 8.1834                67.7910

                    109                    110                    111
                      A                      A                      A
 Frequencies --   3126.9859              3128.3350              3141.2891
 Red. masses --      1.1032                 1.1026                 1.1012
 Frc consts  --      6.3556                 6.3578                 6.4023
 IR Inten    --      9.0844                37.5538                15.8199

                    112                    113                    114
                      A                      A                      A
 Frequencies --   3142.4735              3168.0368              3184.4412
 Red. masses --      1.1008                 1.0900                 1.0880
 Frc consts  --      6.4047                 6.4455                 6.5006
 IR Inten    --     21.5705                 7.7577                 2.8769

                    115                    116                    117
                      A                      A                      A
 Frequencies --   3189.3012              3197.9924              3204.7716
 Red. masses --      1.0863                 1.0923                 1.0929
 Frc consts  --      6.5101                 6.5819                 6.6132
 IR Inten    --      3.9301                10.5283                 4.9752

                    118                    119                    120
                      A                      A                      A
 Frequencies --   3208.7536              3212.2427              3219.3248
 Red. masses --      1.0988                 1.0958                 1.0978
 Frc consts  --      6.6657                 6.6621                 6.7036
 IR Inten    --     23.7706                11.1231                76.9026

 - Thermochemistry -
 -------------------
 Temperature   298.150 Kelvin.  Pressure   1.00000 Atm.
 Atom     1 has atomic number  6 and mass  12.00000

 Molecular mass:   476.12508 amu.
 Principal axes and moments of inertia in atomic units:
                           1         2         3
     Eigenvalues --  3899.69702********************
           X            1.00000  -0.00223  -0.00004
           Y            0.00223   0.99999   0.00364
           Z            0.00003  -0.00364   0.99999
 This molecule is an asymmetric top.
 Rotational symmetry number  1.
 Warning -- assumption of classical behavior for rotation
           may cause significant error
 Rotational temperatures (Kelvin)      0.02221     0.00699     0.00559
 Rotational constants (GHZ):           0.46279     0.14562     0.11640
 Zero-point vibrational energy     895883.1 (Joules/Mol)
                                  214.12121 (Kcal/Mol)
 Warning -- explicit consideration of  34 degrees of freedom as
           vibrations may cause significant error
 Vibrational temperatures:     26.35    28.04    73.17    85.43   114.47
          (Kelvin)            149.83   178.41   194.65   220.01   238.81
                              285.43   333.78   350.88   358.21   363.24
                              394.72   427.21   437.33   455.69   493.73
                              530.41   540.13   548.03   583.89   588.91
                              619.66   632.14   652.05   689.42   711.67
                              761.68   806.48   846.13   858.27   901.17
                              940.49   971.62   991.70  1027.31  1063.55
                             1092.68  1119.58  1143.62  1152.82  1260.02
                             1263.88  1274.49  1293.48  1347.46  1352.31
                             1365.48  1377.69  1406.63  1421.97  1430.35
                             1431.46  1448.15  1459.37  1466.23  1497.36
                             1515.28  1560.90  1570.31  1602.73  1619.59
                             1649.04  1674.75  1686.99  1697.49  1725.99
                             1737.16  1791.39  1810.99  1841.85  1860.33
                             1875.71  1905.09  1910.97  1938.81  1939.95
                             2016.22  2019.03  2030.08  2042.64  2094.76
                             2106.83  2117.41  2126.29  2130.13  2130.30
                             2151.40  2152.96  2158.19  2163.35  2182.86
                             2190.51  2298.71  2354.38  2389.12  2405.44
                             4360.29  4362.51  4364.91  4371.12  4475.32
                             4477.97  4488.86  4492.08  4499.04  4500.98
                             4519.61  4521.32  4558.10  4581.70  4588.69
                             4601.20  4610.95  4616.68  4621.70  4631.89

 Zero-point correction=                           0.341224 (Hartree/Particle)
 Thermal correction to Energy=                    0.362030
 Thermal correction to Enthalpy=                  0.362974
 Thermal correction to Gibbs Free Energy=         0.290163
 Sum of electronic and zero-point Energies=          -1010.312113
 Sum of electronic and thermal Energies=             -1010.291307
 Sum of electronic and thermal Enthalpies=           -1010.290363
 Sum of electronic and thermal Free Energies=        -1010.363174

                     E (Thermal)             CV                S
                      KCal/Mol        Cal/Mol-Kelvin    Cal/Mol-Kelvin
 Total                  227.177             81.563            153.244
 Electronic               0.000              0.000              0.000
 Translational            0.889              2.981             44.370
 Rotational               0.889              2.981             34.970
 Vibrational            225.400             75.601             73.904
 Vibration     1          0.593              1.986              6.809
 Vibration     2          0.593              1.986              6.686
 Vibration     3          0.595              1.977              4.784
 Vibration     4          0.597              1.974              4.478
 Vibration     5          0.600              1.963              3.902
 Vibration     6          0.605              1.946              3.375
 Vibration     7          0.610              1.929              3.037
 Vibration     8          0.613              1.918              2.869
 Vibration     9          0.619              1.899              2.636
 Vibration    10          0.624              1.884              2.480
 Vibration    11          0.637              1.842              2.148
 Vibration    12          0.653              1.792              1.863
 Vibration    13          0.659              1.773              1.774
 Vibration    14          0.662              1.764              1.738
 Vibration    15          0.664              1.759              1.713
 Vibration    16          0.677              1.721              1.569
 Vibration    17          0.691              1.679              1.434
 Vibration    18          0.695              1.666              1.395
 Vibration    19          0.704              1.642              1.327
 Vibration    20          0.722              1.589              1.197
 Vibration    21          0.741              1.537              1.085
 Vibration    22          0.746              1.522              1.058
 Vibration    23          0.751              1.511              1.036
 Vibration    24          0.771              1.458              0.941
 Vibration    25          0.774              1.450              0.929
 Vibration    26          0.792              1.403              0.856
 Vibration    27          0.799              1.384              0.829
 Vibration    28          0.812              1.354              0.786
 Vibration    29          0.836              1.296              0.712
 Vibration    30          0.850              1.262              0.672
 Vibration    31          0.884              1.185              0.589
 Vibration    32          0.916              1.117              0.523
 Vibration    33          0.945              1.057              0.471
 Vibration    34          0.954              1.039              0.456

 Optimization completed.
    -- Stationary point found.
 Normal termination of Gaussian 16 at Thu Nov  2 20:27:05 2023.
