 Gaussian 16, Revision C.01,
 Gaussian 16:  ES64L-G16RevC.01  3-Jul-2019

 ----------------------------------------------------------
 # m06/6-31g(d) scf=tight int=ultrafine 5d opt freq=noraman
 ----------------------------------------------------------

 ------------
 optimization
 ------------
 Symbolic Z-matrix:
 Charge =  0 Multiplicity = 1

 SCF Done:  E(RM06) =  -444.741976981     A.U. after   14 cycles
 SCF Done:  E(RM06) =  -444.745249227     A.U. after   13 cycles
 SCF Done:  E(RM06) =  -444.745836549     A.U. after   12 cycles
 SCF Done:  E(RM06) =  -444.746008490     A.U. after   12 cycles
 SCF Done:  E(RM06) =  -444.746205507     A.U. after   11 cycles
 SCF Done:  E(RM06) =  -444.746228723     A.U. after   10 cycles
 SCF Done:  E(RM06) =  -444.746233066     A.U. after    9 cycles
 SCF Done:  E(RM06) =  -444.746236603     A.U. after   10 cycles
 SCF Done:  E(RM06) =  -444.746238296     A.U. after    9 cycles
 SCF Done:  E(RM06) =  -444.746241357     A.U. after    9 cycles
 SCF Done:  E(RM06) =  -444.746244106     A.U. after    7 cycles
 SCF Done:  E(RM06) =  -444.746245980     A.U. after   10 cycles
 SCF Done:  E(RM06) =  -444.746248491     A.U. after   10 cycles
 SCF Done:  E(RM06) =  -444.746251635     A.U. after   10 cycles
 SCF Done:  E(RM06) =  -444.746255011     A.U. after   10 cycles
 SCF Done:  E(RM06) =  -444.746256423     A.U. after    9 cycles
 SCF Done:  E(RM06) =  -444.746256522     A.U. after   10 cycles
 SCF Done:  E(RM06) =  -444.746256655     A.U. after    9 cycles
 SCF Done:  E(RM06) =  -444.746256661     A.U. after    6 cycles
 Optimization completed.
    -- Stationary point found.
 Normal termination of Gaussian 16 at Fri Nov  3 16:29:40 2023.

 ------------------------------------------------------------------
 #N Geom=AllCheck Guess=TCheck SCRF=Check GenChk RM06/6-31G(d) Freq
 ------------------------------------------------------------------

 Structure from the checkpoint file:  "/mnt/lustre/scratch/nvme/SLURM/4751695/usccqdma.SV7JMpoGMB/Gau-127339.chk"
 ------------
 optimization
 ------------
 Charge =  0 Multiplicity = 1

                         Standard orientation:
 ---------------------------------------------------------------------
 Center     Atomic      Atomic             Coordinates (Angstroms)
 Number     Number       Type             X           Y           Z
 ---------------------------------------------------------------------
      1          6           0        1.445335   -0.439070    0.000011
      2          8           0        1.394388   -1.659373    0.000030
      3          6           0        0.179513    0.401312   -0.000000
      4          1           0        0.178140    1.068269    0.878098
      5          1           0        0.178142    1.068313   -0.878061
      6          6           0        2.812388    1.666749   -0.000011
      7          1           0        1.852903    2.187270    0.000165
      8          1           0        3.376800    1.990354    0.888561
      9          7           0        2.644643    0.234199    0.000002
     10          6           0        3.877108   -0.521989   -0.000014
     11          1           0        4.476863   -0.283551   -0.891222
     12          1           0        4.476989   -0.283343    0.891050
     13          1           0        3.631931   -1.585990    0.000109
     14          6           0       -1.077118   -0.450706   -0.000030
     15          1           0       -1.064251   -1.118070   -0.874460
     16          1           0       -1.064206   -1.118201    0.874296
     17          6           0       -2.343932    0.389186    0.000057
     18          1           0       -2.349084    1.057082    0.879898
     19          1           0       -2.349087    1.057279   -0.879635
     20          6           0       -3.613153   -0.449562   -0.000028
     21          1           0       -3.606096   -1.114555   -0.878668
     22          1           0       -3.606142   -1.114653    0.878538
     23          6           0       -4.874723    0.397068   -0.000010
     24          1           0       -4.913302    1.047576    0.885131
     25          1           0       -4.913257    1.047682   -0.885074
     26          1           0       -5.782956   -0.218194   -0.000069
     27          1           0        3.376506    1.990394   -0.888756
 ---------------------------------------------------------------------

 SCF Done:  E(RM06) =  -444.746256661     A.U. after    1 cycles

 The electronic state is 1-A.
 Alpha  occ. eigenvalues --  -19.18432 -14.42623 -10.34404 -10.28424 -10.26681
 Alpha  occ. eigenvalues --  -10.25115 -10.23654 -10.23581 -10.23406 -10.22909
 Alpha  occ. eigenvalues --   -1.04580  -0.94530  -0.81575  -0.77406  -0.73149
 Alpha  occ. eigenvalues --   -0.71523  -0.67714  -0.61172  -0.58086  -0.54395
 Alpha  occ. eigenvalues --   -0.50614  -0.49583  -0.47879  -0.47865  -0.44702
 Alpha  occ. eigenvalues --   -0.43204  -0.41405  -0.41011  -0.41003  -0.40255
 Alpha  occ. eigenvalues --   -0.39806  -0.38577  -0.36333  -0.36030  -0.33822
 Alpha  occ. eigenvalues --   -0.33551  -0.32817  -0.32363  -0.25716  -0.24950
 Alpha virt. eigenvalues --    0.04214   0.09334   0.10346   0.12018   0.13068
 Alpha virt. eigenvalues --    0.13588   0.14679   0.15625   0.16293   0.16844
 Alpha virt. eigenvalues --    0.17086   0.17599   0.18146   0.18385   0.19049

 Mulliken charges:
               1
     1  C    0.605621
     2  O   -0.508227
     3  C   -0.431300
     4  H    0.170279
     5  H    0.170279
     6  C   -0.370643
     7  H    0.184303
     8  H    0.175580
     9  N   -0.402365
    10  C   -0.376777
    11  H    0.166051
    12  H    0.166046
    13  H    0.223299
    14  C   -0.272599
    15  H    0.165310
    16  H    0.165318
    17  C   -0.278875
    18  H    0.135787
    19  H    0.135784
    20  C   -0.283839
    21  H    0.151098
    22  H    0.151100
    23  C   -0.498355
    24  H    0.158058
    25  H    0.158058
    26  H    0.165427
    27  H    0.175582
 Sum of Mulliken charges =  -0.00000

 Dipole moment (field-independent basis, Debye):
    X=              0.9308    Y=              3.2178    Z=             -0.0000  Tot=              3.3498
 Quadrupole moment (field-independent basis, Debye-Ang):
   XX=            -56.6860   YY=            -67.1482   ZZ=            -62.7155
   XY=              5.3040   XZ=             -0.0000   YZ=              0.0001

  Exact polarizability:     121.406       4.395      92.632      -0.000      -0.000      75.677
 Approx polarizability:     126.869       8.853     136.216      -0.000      -0.000     109.384

                      1                      2                      3
                      A                      A                      A
 Frequencies --     39.1568                48.2118                75.7557
 Red. masses --      1.7238                 2.6965                 1.5414
 Frc consts  --      0.0016                 0.0037                 0.0052
 IR Inten    --      0.9185                 0.0596                 0.0363

                      4                      5                      6
                      A                      A                      A
 Frequencies --     81.5837               102.6861               134.7676
 Red. masses --      3.4922                 2.7360                 1.7739
 Frc consts  --      0.0137                 0.0170                 0.0190
 IR Inten    --      1.6844                 0.5845                 0.0113

                      7                      8                      9
                      A                      A                      A
 Frequencies --    154.6367               175.4484               218.3470
 Red. masses --      1.0954                 2.1311                 3.2982
 Frc consts  --      0.0154                 0.0386                 0.0926
 IR Inten    --      0.0170                 1.5401                 1.1248

                     10                     11                     12
                      A                      A                      A
 Frequencies --    240.1413               251.4482               252.2692
 Red. masses --      1.7490                 1.1293                 4.3167
 Frc consts  --      0.0594                 0.0421                 0.1619
 IR Inten    --      4.6634                 0.0472                 1.7143

                     13                     14                     15
                      A                      A                      A
 Frequencies --    367.9580               419.6599               431.2469
 Red. masses --      3.1403                 2.6982                 3.3740
 Frc consts  --      0.2505                 0.2800                 0.3697
 IR Inten    --      6.4647                 2.2101                 9.5693

                     16                     17                     18
                      A                      A                      A
 Frequencies --    516.9994               569.2157               621.4020
 Red. masses --      3.3539                 2.2616                 4.5854
 Frc consts  --      0.5282                 0.4317                 1.0432
 IR Inten    --      3.4418                 3.0778                 7.7542

                     19                     20                     21
                      A                      A                      A
 Frequencies --    714.3139               754.8385               818.0689
 Red. masses --      1.0766                 1.2030                 4.5224
 Frc consts  --      0.3236                 0.4039                 1.7832
 IR Inten    --      3.6402                 0.4745                 0.4517

                     22                     23                     24
                      A                      A                      A
 Frequencies --    854.2295               915.3791               967.6669
 Red. masses --      1.3450                 1.6815                 1.2835
 Frc consts  --      0.5783                 0.8301                 0.7081
 IR Inten    --      4.5012                 3.3141                 0.4361

                     25                     26                     27
                      A                      A                      A
 Frequencies --    997.3047              1048.0507              1074.1429
 Red. masses --      2.7196                 3.1435                 1.4002
 Frc consts  --      1.5937                 2.0344                 0.9518
 IR Inten    --      3.4468                14.7654                 2.8373

                     28                     29                     30
                      A                      A                      A
 Frequencies --   1088.1739              1094.6954              1116.7333
 Red. masses --      2.1904                 1.8707                 1.4579
 Frc consts  --      1.5282                 1.3208                 1.0712
 IR Inten    --     12.7821                 0.7552                 0.6273

                     31                     32                     33
                      A                      A                      A
 Frequencies --   1120.7233              1129.6313              1166.3193
 Red. masses --      1.2446                 1.9408                 2.3400
 Frc consts  --      0.9210                 1.4591                 1.8754
 IR Inten    --      0.1398                63.7105                89.4231

                     34                     35                     36
                      A                      A                      A
 Frequencies --   1169.8441              1221.9850              1252.6612
 Red. masses --      1.3847                 1.5557                 1.3927
 Frc consts  --      1.1165                 1.3687                 1.2876
 IR Inten    --      1.5869                 0.1134                 1.0784

                     37                     38                     39
                      A                      A                      A
 Frequencies --   1289.4134              1311.2823              1318.3648
 Red. masses --      1.2515                 4.5268                 1.0404
 Frc consts  --      1.2260                 4.5860                 1.0655
 IR Inten    --      0.1313                36.1172                 0.1243

                     40                     41                     42
                      A                      A                      A
 Frequencies --   1328.7122              1330.9787              1387.2929
 Red. masses --      1.1222                 1.6825                 1.6727
 Frc consts  --      1.1673                 1.7561                 1.8968
 IR Inten    --      0.2912                14.4340                11.2138

                     43                     44                     45
                      A                      A                      A
 Frequencies --   1416.3703              1417.2790              1420.2276
 Red. masses --      1.2920                 1.2232                 1.8885
 Frc consts  --      1.5271                 1.4477                 2.2443
 IR Inten    --      8.6128                10.6520                 6.6411

                     46                     47                     48
                      A                      A                      A
 Frequencies --   1447.3014              1458.3936              1474.5427
 Red. masses --      1.6640                 1.3229                 1.1312
 Frc consts  --      2.0536                 1.6577                 1.4491
 IR Inten    --    100.1879                57.5456                12.1122

                     49                     50                     51
                      A                      A                      A
 Frequencies --   1476.2739              1477.6572              1484.2082
 Red. masses --      1.0368                 1.0926                 1.0744
 Frc consts  --      1.3314                 1.4057                 1.3944
 IR Inten    --      1.1708                 6.1194                 2.8177

                     52                     53                     54
                      A                      A                      A
 Frequencies --   1493.2044              1495.6292              1496.2414
 Red. masses --      1.0416                 1.0744                 1.0390
 Frc consts  --      1.3683                 1.4159                 1.3705
 IR Inten    --     19.2404                 7.8507                 8.8026

                     55                     56                     57
                      A                      A                      A
 Frequencies --   1498.2023              1508.0131              1545.3447
 Red. masses --      1.0744                 1.0910                 1.4274
 Frc consts  --      1.4209                 1.4617                 2.0084
 IR Inten    --      8.8971                 6.7318                87.6023

                     58                     59                     60
                      A                      A                      A
 Frequencies --   1810.2234              2988.0668              3005.8452
 Red. masses --     11.2122                 1.0601                 1.0401
 Frc consts  --     21.6473                 5.5766                 5.5366
 IR Inten    --    278.8385                18.0964                36.6904

                     61                     62                     63
                      A                      A                      A
 Frequencies --   3011.4706              3013.8018              3014.5136
 Red. masses --      1.0609                 1.0395                 1.0608
 Frc consts  --      5.6687                 5.5627                 5.6795
 IR Inten    --     15.4312               100.7199                24.8747

                     64                     65                     66
                      A                      A                      A
 Frequencies --   3025.8111              3026.9734              3040.4385
 Red. masses --      1.0377                 1.1005                 1.0619
 Frc consts  --      5.5978                 5.9407                 5.7837
 IR Inten    --     41.4720                11.9586                32.4853

                     67                     68                     69
                      A                      A                      A
 Frequencies --   3054.3246              3059.6815              3061.5122
 Red. masses --      1.1000                 1.1036                 1.1043
 Frc consts  --      6.0461                 6.0874                 6.0982
 IR Inten    --     16.0565                10.5951                47.7958

                     70                     71                     72
                      A                      A                      A
 Frequencies --   3075.1988              3090.6207              3104.2564
 Red. masses --      1.1052                 1.1038                 1.1027
 Frc consts  --      6.1580                 6.2122                 6.2604
 IR Inten    --     21.7665                36.9665                56.4756

                     73                     74                     75
                      A                      A                      A
 Frequencies --   3118.2762              3175.5883              3177.3080
 Red. masses --      1.1017                 1.0961                 1.0972
 Frc consts  --      6.3116                 6.5124                 6.5261
 IR Inten    --     36.3548                 7.0334                 4.9636

 - Thermochemistry -
 -------------------
 Temperature   298.150 Kelvin.  Pressure   1.00000 Atm.
 Atom     1 has atomic number  6 and mass  12.00000

 Molecular mass:   143.13101 amu.
 Principal axes and moments of inertia in atomic units:
                           1         2         3
     Eigenvalues --   472.478394157.422234551.46043
           X            0.99999   0.00545  -0.00000
           Y           -0.00545   0.99999   0.00000
           Z            0.00000  -0.00000   1.00000
 This molecule is an asymmetric top.
 Rotational symmetry number  1.
 Warning -- assumption of classical behavior for rotation
           may cause significant error
 Rotational temperatures (Kelvin)      0.18332     0.02083     0.01903
 Rotational constants (GHZ):           3.81973     0.43410     0.39652
 Zero-point vibrational energy     640806.9 (Joules/Mol)
                                  153.15652 (Kcal/Mol)
 Warning -- explicit consideration of  17 degrees of freedom as
           vibrations may cause significant error
 Vibrational temperatures:     56.34    69.37   109.00   117.38   147.74
          (Kelvin)            193.90   222.49   252.43   314.15   345.51
                              361.78   362.96   529.41   603.80   620.47
                              743.85   818.97   894.06  1027.74  1086.04
                             1177.02  1229.05  1317.03  1392.26  1434.90
                             1507.91  1545.45  1565.64  1575.02  1606.73
                             1612.47  1625.29  1678.07  1683.14  1758.16
                             1802.30  1855.18  1886.64  1896.83  1911.72
                             1914.98  1996.01  2037.84  2039.15  2043.39
                             2082.34  2098.30  2121.54  2124.03  2126.02
                             2135.44  2148.39  2151.88  2152.76  2155.58
                             2169.69  2223.41  2604.51  4299.16  4324.74
                             4332.83  4336.19  4337.21  4353.47  4355.14
                             4374.51  4394.49  4402.20  4404.83  4424.53
                             4446.71  4466.33  4486.50  4568.96  4571.44

 Zero-point correction=                           0.244070 (Hartree/Particle)
 Thermal correction to Energy=                    0.257096
 Thermal correction to Enthalpy=                  0.258040
 Thermal correction to Gibbs Free Energy=         0.203665
 Sum of electronic and zero-point Energies=           -444.502186
 Sum of electronic and thermal Energies=              -444.489161
 Sum of electronic and thermal Enthalpies=            -444.488217
 Sum of electronic and thermal Free Energies=         -444.542592

                     E (Thermal)             CV                S
                      KCal/Mol        Cal/Mol-Kelvin    Cal/Mol-Kelvin
 Total                  161.330             45.138            114.442
 Electronic               0.000              0.000              0.000
 Translational            0.889              2.981             40.787
 Rotational               0.889              2.981             30.570
 Vibrational            159.553             39.176             43.085
 Vibration     1          0.594              1.981              5.301
 Vibration     2          0.595              1.978              4.889
 Vibration     3          0.599              1.965              3.998
 Vibration     4          0.600              1.962              3.852
 Vibration     5          0.605              1.947              3.403
 Vibration     6          0.613              1.919              2.877
 Vibration     7          0.620              1.898              2.614
 Vibration     8          0.627              1.873              2.376
 Vibration     9          0.646              1.813              1.973
 Vibration    10          0.657              1.779              1.802
 Vibration    11          0.663              1.760              1.720
 Vibration    12          0.664              1.759              1.715
 Vibration    13          0.741              1.538              1.088
 Vibration    14          0.782              1.428              0.893
 Vibration    15          0.792              1.402              0.855
 Vibration    16          0.872              1.212              0.617
 Vibration    17          0.925              1.098              0.506

 Optimization completed.
    -- Stationary point found.
 Normal termination of Gaussian 16 at Fri Nov  3 16:30:41 2023.
