 Gaussian 16, Revision C.01,
 Gaussian 16:  ES64L-G16RevC.01  3-Jul-2019

 ----------------------------------------------------------
 # m06/6-31g(d) scf=tight int=ultrafine 5d opt freq=noraman
 ----------------------------------------------------------

 ------------
 optimization
 ------------
 Symbolic Z-matrix:
 Charge =  0 Multiplicity = 1

 SCF Done:  E(RM06) =  -855.038872799     A.U. after   15 cycles
 SCF Done:  E(RM06) =  -855.097055816     A.U. after   13 cycles
 SCF Done:  E(RM06) =  -855.134593846     A.U. after   14 cycles
 SCF Done:  E(RM06) =  -855.151750585     A.U. after   14 cycles
 SCF Done:  E(RM06) =  -855.156360776     A.U. after   12 cycles
 SCF Done:  E(RM06) =  -855.158789443     A.U. after   12 cycles
 SCF Done:  E(RM06) =  -855.159919907     A.U. after   14 cycles
 SCF Done:  E(RM06) =  -855.161436911     A.U. after   12 cycles
 SCF Done:  E(RM06) =  -855.161729682     A.U. after   11 cycles
 SCF Done:  E(RM06) =  -855.161829982     A.U. after   11 cycles
 SCF Done:  E(RM06) =  -855.171133842     A.U. after    9 cycles
 SCF Done:  E(RM06) =  -855.171135424     A.U. after    9 cycles
 SCF Done:  E(RM06) =  -855.171136759     A.U. after    9 cycles
 SCF Done:  E(RM06) =  -855.171138370     A.U. after    8 cycles
 SCF Done:  E(RM06) =  -855.171139688     A.U. after    9 cycles
 SCF Done:  E(RM06) =  -855.171140340     A.U. after    8 cycles
 SCF Done:  E(RM06) =  -855.171140505     A.U. after    7 cycles
 SCF Done:  E(RM06) =  -855.171140549     A.U. after    6 cycles
 SCF Done:  E(RM06) =  -855.171140562     A.U. after    6 cycles
 Optimization completed.
    -- Stationary point found.
 Normal termination of Gaussian 16 at Thu Nov  2 21:43:19 2023.

 ------------------------------------------------------------------
 #N Geom=AllCheck Guess=TCheck SCRF=Check GenChk RM06/6-31G(d) Freq
 ------------------------------------------------------------------

 Structure from the checkpoint file:  "/mnt/lustre/scratch/nvme/SLURM/4748304/usccqdma.z9ffxNohzs/Gau-548389.chk"
 ------------
 optimization
 ------------
 Charge =  0 Multiplicity = 1

                         Standard orientation:
 ---------------------------------------------------------------------
 Center     Atomic      Atomic             Coordinates (Angstroms)
 Number     Number       Type             X           Y           Z
 ---------------------------------------------------------------------
      1          6           0        1.011245   -1.164861    0.198160
      2          8           0        0.403372   -0.193821    0.652208
      3          6           0        2.501425   -1.109557   -0.056811
      4          1           0        3.006108   -1.859336    0.575211
      5          1           0        2.705503   -1.413528   -1.096330
      6          6           0        0.931228   -3.566831   -0.462285
      7          1           0        1.985465   -3.450136   -0.725230
      8          1           0        0.857785   -4.292159    0.363482
      9          7           0        0.334670   -2.305487   -0.095770
     10          6           0       -1.084806   -2.313923    0.243541
     11          1           0       -1.594443   -2.974255   -0.474282
     12          1           0       -1.229266   -2.749996    1.245823
     13          6           0        3.087498    0.266933    0.204989
     14          1           0        2.571808    1.007321   -0.425198
     15          1           0        2.870383    0.564012    1.241539
     16          6           0        4.584754    0.314089   -0.052224
     17          1           0        5.095687   -0.432142    0.581837
     18          1           0        4.794175    0.012380   -1.093851
     19          6           0        5.187763    1.687169    0.203383
     20          1           0        4.675680    2.429572   -0.429733
     21          1           0        4.978575    1.985328    1.243343
     22          6           0        6.684026    1.727054   -0.057185
     23          1           0        7.215897    1.011960    0.586048
     24          1           0        6.910286    1.460002   -1.099062
     25          1           0        7.107477    2.721446    0.130426
     26          1           0        0.409021   -3.990961   -1.330986
     27          6           0       -2.513266    1.041603   -0.744964
     28          6           0       -3.294362    0.706024    0.564778
     29          6           0       -1.428753    2.092394   -0.545049
     30          1           0       -0.793540    2.109538   -1.440144
     31          1           0       -1.859649    3.093539   -0.408785
     32          1           0       -0.787008    1.852978    0.309689
     33          6           0       -3.385833    1.427753   -1.923054
     34          1           0       -3.968135    2.332585   -1.697338
     35          1           0       -2.753373    1.641950   -2.793966
     36          1           0       -4.078082    0.625210   -2.199976
     37          6           0       -3.425145    1.857898    1.540426
     38          1           0       -3.972552    2.695493    1.084783
     39          1           0       -3.983299    1.529954    2.426648
     40          1           0       -2.445446    2.216507    1.872808
     41          6           0       -4.662942    0.091580    0.302241
     42          1           0       -5.055641   -0.309466    1.244911
     43          1           0       -5.378037    0.830299   -0.083403
     44          1           0       -4.595055   -0.736488   -0.415396
     45          8           0       -1.864523   -0.207314   -1.041752
     46          8           0       -2.488108   -0.324027    1.162327
     47          5           0       -1.719192   -0.863172    0.159916
 ---------------------------------------------------------------------

 SCF Done:  E(RM06) =  -855.171140562     A.U. after    1 cycles

 The electronic state is 1-A.
 Alpha  occ. eigenvalues --  -19.20410 -19.20330 -19.19810 -14.43120 -10.35033
 Alpha  occ. eigenvalues --  -10.29551 -10.29409 -10.28542 -10.25727 -10.24985
 Alpha  occ. eigenvalues --  -10.23975 -10.23902 -10.23838 -10.23099 -10.22714
 Alpha  occ. eigenvalues --  -10.22591 -10.22584 -10.21577  -6.81090  -1.06720
 Alpha  occ. eigenvalues --   -1.05667  -0.99781  -0.94759  -0.82018  -0.80512
 Alpha  occ. eigenvalues --   -0.77797  -0.74881  -0.73078  -0.71891  -0.70283
 Alpha  occ. eigenvalues --   -0.67895  -0.67441  -0.61840  -0.61050  -0.58395
 Alpha  occ. eigenvalues --   -0.55125  -0.54802  -0.53015  -0.51359  -0.49846
 Alpha  occ. eigenvalues --   -0.48290  -0.47983  -0.46762  -0.46214  -0.45053
 Alpha  occ. eigenvalues --   -0.44446  -0.43461  -0.43363  -0.41832  -0.41645
 Alpha  occ. eigenvalues --   -0.40947  -0.40224  -0.40053  -0.39972  -0.39697
 Alpha  occ. eigenvalues --   -0.39245  -0.39082  -0.37234  -0.36839  -0.36526
 Alpha  occ. eigenvalues --   -0.36402  -0.35918  -0.34684  -0.34262  -0.33903
 Alpha  occ. eigenvalues --   -0.33856  -0.33056  -0.32686  -0.32555  -0.32362
 Alpha  occ. eigenvalues --   -0.30250  -0.26784  -0.26440  -0.25131
 Alpha virt. eigenvalues --    0.03223   0.08420   0.09075   0.09909   0.10754
 Alpha virt. eigenvalues --    0.12073   0.12695   0.12753   0.13577   0.14236
 Alpha virt. eigenvalues --    0.14554   0.15203   0.15588   0.15881   0.16363

 Mulliken charges:
               1
     1  C    0.627870
     2  O   -0.520104
     3  C   -0.435074
     4  H    0.175581
     5  H    0.176966
     6  C   -0.374440
     7  H    0.181416
     8  H    0.179261
     9  N   -0.402557
    10  C   -0.383579
    11  H    0.159914
    12  H    0.171851
    13  C   -0.274787
    14  H    0.164529
    15  H    0.168037
    16  C   -0.279432
    17  H    0.137531
    18  H    0.137854
    19  C   -0.284519
    20  H    0.151373
    21  H    0.151668
    22  C   -0.498757
    23  H    0.158780
    24  H    0.158815
    25  H    0.166216
    26  H    0.184774
    27  C    0.293814
    28  C    0.301372
    29  C   -0.510573
    30  H    0.161585
    31  H    0.143376
    32  H    0.200901
    33  C   -0.512659
    34  H    0.150145
    35  H    0.169907
    36  H    0.166740
    37  C   -0.511341
    38  H    0.148745
    39  H    0.168664
    40  H    0.178760
    41  C   -0.507699
    42  H    0.170709
    43  H    0.152280
    44  H    0.164704
    45  O   -0.523626
    46  O   -0.515611
    47  B    0.710621
 Sum of Mulliken charges =  -0.00000

 Dipole moment (field-independent basis, Debye):
    X=              1.3428    Y=             -1.7287    Z=             -1.0252  Tot=              2.4172
 Quadrupole moment (field-independent basis, Debye-Ang):
   XX=           -109.8785   YY=           -105.7164   ZZ=           -120.1832
   XY=             -5.9831   XZ=              0.6273   YZ=              0.4954

  Exact polarizability:     198.760      -1.035     177.961      -3.548       2.032     142.832
 Approx polarizability:     223.921      -5.937     238.537      -3.860       7.009     211.499

                      1                      2                      3
                      A                      A                      A
 Frequencies --     10.8599                31.0460                40.5463
 Red. masses --      3.7760                 3.4738                 2.5191
 Frc consts  --      0.0003                 0.0020                 0.0024
 IR Inten    --      0.6837                 1.4078                 2.3205

                      4                      5                      6
                      A                      A                      A
 Frequencies --     57.4945                62.1841                74.5822
 Red. masses --      2.0863                 1.6233                 2.4205
 Frc consts  --      0.0041                 0.0037                 0.0079
 IR Inten    --      0.0440                 1.1402                 1.0485

                      7                      8                      9
                      A                      A                      A
 Frequencies --     87.1540               104.8327               131.4723
 Red. masses --      2.3522                 3.8123                 3.4389
 Frc consts  --      0.0105                 0.0247                 0.0350
 IR Inten    --      0.5237                10.6576                 1.4007

                     10                     11                     12
                      A                      A                      A
 Frequencies --    142.2653               150.4264               182.7408
 Red. masses --      1.7444                 3.2528                 2.9786
 Frc consts  --      0.0208                 0.0434                 0.0586
 IR Inten    --      0.0420                 0.2389                 4.0363

                     13                     14                     15
                      A                      A                      A
 Frequencies --    202.3285               217.5208               232.2345
 Red. masses --      2.6472                 2.5889                 2.2778
 Frc consts  --      0.0638                 0.0722                 0.0724
 IR Inten    --      0.3067                 2.5810                 1.0189

                     16                     17                     18
                      A                      A                      A
 Frequencies --    240.0534               245.1386               252.3395
 Red. masses --      1.4236                 1.1319                 2.2839
 Frc consts  --      0.0483                 0.0401                 0.0857
 IR Inten    --      0.3709                 0.0266                 3.7112

                     19                     20                     21
                      A                      A                      A
 Frequencies --    259.6161               279.0043               294.8494
 Red. masses --      1.4399                 2.5851                 2.2746
 Frc consts  --      0.0572                 0.1186                 0.1165
 IR Inten    --      4.1823                16.1431                 0.4954

                     22                     23                     24
                      A                      A                      A
 Frequencies --    308.9007               321.7469               335.0911
 Red. masses --      2.0111                 1.2715                 1.0912
 Frc consts  --      0.1131                 0.0776                 0.0722
 IR Inten    --      1.1756                 0.4181                 0.2288

                     25                     26                     27
                      A                      A                      A
 Frequencies --    362.2075               377.9496               384.1636
 Red. masses --      2.4997                 2.3022                 3.0441
 Frc consts  --      0.1932                 0.1938                 0.2647
 IR Inten    --      5.0935                 0.5875                13.0844

                     28                     29                     30
                      A                      A                      A
 Frequencies --    404.3271               409.8756               437.4305
 Red. masses --      2.6369                 3.0179                 3.2242
 Frc consts  --      0.2540                 0.2987                 0.3635
 IR Inten    --      8.2291                 9.1657                15.8958

                     31                     32                     33
                      A                      A                      A
 Frequencies --    482.7945               526.0489               528.4317
 Red. masses --      2.8124                 3.2871                 3.3743
 Frc consts  --      0.3862                 0.5359                 0.5551
 IR Inten    --      3.8731                10.0374                 6.9786

                     34                     35                     36
                      A                      A                      A
 Frequencies --    561.7111               580.6102               588.1550
 Red. masses --      3.7809                 2.4606                 3.5426
 Frc consts  --      0.7029                 0.4887                 0.7220
 IR Inten    --     27.8420                 3.6545                 1.7941

                     37                     38                     39
                      A                      A                      A
 Frequencies --    634.9935               676.8234               699.8496
 Red. masses --      5.5337                 3.6201                 4.0175
 Frc consts  --      1.3146                 0.9771                 1.1593
 IR Inten    --      4.7598                14.4963                27.3450

                     40                     41                     42
                      A                      A                      A
 Frequencies --    719.0259               756.8813               823.1408
 Red. masses --      1.0759                 1.2043                 2.5976
 Frc consts  --      0.3277                 0.4065                 1.0370
 IR Inten    --      4.5241                 0.6812                 2.8558

                     43                     44                     45
                      A                      A                      A
 Frequencies --    829.3287               852.0795               864.0724
 Red. masses --      3.2844                 1.3377                 3.7330
 Frc consts  --      1.3309                 0.5722                 1.6421
 IR Inten    --     15.5256                 4.3098                 3.3662

                     46                     47                     48
                      A                      A                      A
 Frequencies --    900.3949               914.4741               918.6861
 Red. masses --      2.7061                 1.8306                 2.0328
 Frc consts  --      1.2926                 0.9020                 1.0109
 IR Inten    --      3.9673                14.7881                13.4839

                     49                     50                     51
                      A                      A                      A
 Frequencies --    939.0862               940.7416               966.6517
 Red. masses --      1.4565                 1.4547                 1.2692
 Frc consts  --      0.7568                 0.7585                 0.6988
 IR Inten    --      0.1258                 0.1472                 0.1726

                     52                     53                     54
                      A                      A                      A
 Frequencies --    985.1789               998.2597              1008.9571
 Red. masses --      1.7298                 1.7783                 1.3456
 Frc consts  --      0.9892                 1.0441                 0.8071
 IR Inten    --      2.9422                19.2721                 0.2880

                     55                     56                     57
                      A                      A                      A
 Frequencies --   1017.0204              1027.1529              1048.4405
 Red. masses --      1.8026                 2.0173                 2.9511
 Frc consts  --      1.0985                 1.2540                 1.9112
 IR Inten    --      0.1995                12.1677                 8.2768

                     58                     59                     60
                      A                      A                      A
 Frequencies --   1084.2209              1093.4713              1119.4288
 Red. masses --      2.3520                 1.8670                 1.4757
 Frc consts  --      1.6290                 1.3152                 1.0895
 IR Inten    --      5.3711                 1.7462                 2.1861

                     61                     62                     63
                      A                      A                      A
 Frequencies --   1126.7480              1135.3923              1150.6078
 Red. masses --      1.7583                 1.3169                 2.4932
 Frc consts  --      1.3152                 1.0002                 1.9448
 IR Inten    --     34.1596                 5.3725                 6.6289

                     64                     65                     66
                      A                      A                      A
 Frequencies --   1158.7421              1201.6021              1205.8412
 Red. masses --      2.3612                 2.7964                 2.9580
 Frc consts  --      1.8679                 2.3788                 2.5341
 IR Inten    --     38.4308                25.0173               229.8788

                     67                     68                     69
                      A                      A                      A
 Frequencies --   1213.2257              1222.1812              1230.3799
 Red. masses --      1.4657                 1.5612                 1.4891
 Frc consts  --      1.2711                 1.3740                 1.3282
 IR Inten    --     13.8412                 1.4749                71.3019

                     70                     71                     72
                      A                      A                      A
 Frequencies --   1253.1950              1260.2636              1284.0106
 Red. masses --      1.4122                 3.0393                 2.8552
 Frc consts  --      1.3067                 2.8441                 2.7734
 IR Inten    --      9.3738                24.0079                 3.5954

                     73                     74                     75
                      A                      A                      A
 Frequencies --   1288.1719              1298.0980              1317.4544
 Red. masses --      1.2703                 4.3271                 2.8144
 Frc consts  --      1.2420                 4.2960                 2.8781
 IR Inten    --      2.3628                86.8990                20.7886

                     76                     77                     78
                      A                      A                      A
 Frequencies --   1318.9392              1326.9277              1327.9878
 Red. masses --      1.0458                 1.5766                 1.1793
 Frc consts  --      1.0719                 1.6355                 1.2254
 IR Inten    --      0.3898                20.8327                 5.9076

                     79                     80                     81
                      A                      A                      A
 Frequencies --   1372.5149              1386.1306              1403.5068
 Red. masses --      4.0893                 1.9183                 1.4841
 Frc consts  --      4.5387                 2.1716                 1.7224
 IR Inten    --    173.2907                77.9006                32.8761

                     82                     83                     84
                      A                      A                      A
 Frequencies --   1404.2431              1411.9343              1412.7320
 Red. masses --      1.3918                 1.8564                 1.5763
 Frc consts  --      1.6170                 2.1804                 1.8536
 IR Inten    --     19.8741               126.9893               101.4689

                     85                     86                     87
                      A                      A                      A
 Frequencies --   1417.6211              1421.0408              1423.6057
 Red. masses --      1.4027                 1.5213                 1.8383
 Frc consts  --      1.6609                 1.8100                 2.1951
 IR Inten    --     34.0990                17.3884                20.5447

                     88                     89                     90
                      A                      A                      A
 Frequencies --   1446.6983              1461.3741              1463.9682
 Red. masses --      1.2065                 1.3238                 1.0734
 Frc consts  --      1.4877                 1.6657                 1.3555
 IR Inten    --      6.9478                33.5540                 3.3602

                     91                     92                     93
                      A                      A                      A
 Frequencies --   1466.7368              1473.0458              1476.6049
 Red. masses --      1.1182                 1.0529                 1.0551
 Frc consts  --      1.4174                 1.3461                 1.3554
 IR Inten    --     21.5581                 2.0321                 7.4180

                     94                     95                     96
                      A                      A                      A
 Frequencies --   1477.8534              1478.5923              1481.1785
 Red. masses --      1.0614                 1.0813                 1.0586
 Frc consts  --      1.3658                 1.3928                 1.3684
 IR Inten    --      6.0357                 2.1948                 5.7767

                     97                     98                     99
                      A                      A                      A
 Frequencies --   1484.0849              1492.0443              1495.0430
 Red. masses --      1.0713                 1.1328                 1.0494
 Frc consts  --      1.3903                 1.4859                 1.3820
 IR Inten    --      2.7884                13.1112                10.0867

                    100                    101                    102
                      A                      A                      A
 Frequencies --   1495.5141              1496.6490              1501.0066
 Red. masses --      1.0388                 1.0893                 1.0626
 Frc consts  --      1.3689                 1.4376                 1.4105
 IR Inten    --      8.8547                 5.3369                 4.9731

                    103                    104                    105
                      A                      A                      A
 Frequencies --   1502.9699              1508.1959              1517.6916
 Red. masses --      1.0817                 1.0921                 1.0597
 Frc consts  --      1.4396                 1.4636                 1.4381
 IR Inten    --      4.1250                 7.0943                11.9057

                    106                    107                    108
                      A                      A                      A
 Frequencies --   1552.1730              1761.3301              2987.9258
 Red. masses --      2.0379                10.5927                 1.0602
 Frc consts  --      2.8928                19.3615                 5.5765
 IR Inten    --    128.3309               317.7579                18.3066

                    109                    110                    111
                      A                      A                      A
 Frequencies --   3009.3551              3011.7891              3013.1252
 Red. masses --      1.0550                 1.0610                 1.0491
 Frc consts  --      5.6295                 5.6704                 5.6118
 IR Inten    --     22.3548                 4.8553                94.4761

                    112                    113                    114
                      A                      A                      A
 Frequencies --   3013.9833              3025.8581              3026.7441
 Red. masses --      1.0611                 1.0376                 1.1001
 Frc consts  --      5.6791                 5.5970                 5.9381
 IR Inten    --     17.8828                43.0994                10.6717

                    115                    116                    117
                      A                      A                      A
 Frequencies --   3034.2899              3036.3774              3037.0135
 Red. masses --      1.0369                 1.0391                 1.0615
 Frc consts  --      5.6245                 5.6444                 5.7683
 IR Inten    --      7.2035                16.0781                33.8455

                    118                    119                    120
                      A                      A                      A
 Frequencies --   3038.3294              3043.3101              3055.1080
 Red. masses --      1.0385                 1.0386                 1.0996
 Frc consts  --      5.6486                 5.6674                 6.0467
 IR Inten    --     23.5330                28.1836                11.9876

                    121                    122                    123
                      A                      A                      A
 Frequencies --   3059.2444              3066.3801              3080.1459
 Red. masses --      1.1035                 1.1005                 1.1012
 Frc consts  --      6.0847                 6.0965                 6.1555
 IR Inten    --     14.0737                24.1833                18.6970

                    124                    125                    126
                      A                      A                      A
 Frequencies --   3088.5261              3104.7465              3115.4363
 Red. masses --      1.1036                 1.1026                 1.1020
 Frc consts  --      6.2025                 6.2623                 6.3019
 IR Inten    --     34.0026                52.7079                 0.6488

                    127                    128                    129
                      A                      A                      A
 Frequencies --   3116.2758              3117.4593              3121.6161
 Red. masses --      1.1015                 1.1019                 1.1023
 Frc consts  --      6.3026                 6.3094                 6.3284
 IR Inten    --     18.0627                34.2582                11.4605

                    130                    131                    132
                      A                      A                      A
 Frequencies --   3124.7403              3128.3557              3143.7063
 Red. masses --      1.1024                 1.1025                 1.1012
 Frc consts  --      6.3417                 6.3571                 6.4121
 IR Inten    --     53.3779                26.5488                16.5826

                    133                    134                    135
                      A                      A                      A
 Frequencies --   3146.3802              3155.3158              3161.4824
 Red. masses --      1.1016                 1.1003                 1.0978
 Frc consts  --      6.4254                 6.4545                 6.4651
 IR Inten    --     15.9924                 7.1818                14.5518

 - Thermochemistry -
 -------------------
 Temperature   298.150 Kelvin.  Pressure   1.00000 Atm.
 Atom     1 has atomic number  6 and mass  12.00000

 Molecular mass:   269.21622 amu.
 Principal axes and moments of inertia in atomic units:
                           1         2         3
     Eigenvalues --  3062.22484********************
           X            1.00000  -0.00067   0.00036
           Y            0.00067   0.99999   0.00507
           Z           -0.00036  -0.00507   0.99999
 This molecule is an asymmetric top.
 Rotational symmetry number  1.
 Warning -- assumption of classical behavior for rotation
           may cause significant error
 Rotational temperatures (Kelvin)      0.02828     0.00829     0.00709
 Rotational constants (GHZ):           0.58936     0.17265     0.14772
 Zero-point vibrational energy    1093359.1 (Joules/Mol)
                                  261.31910 (Kcal/Mol)
 Warning -- explicit consideration of  36 degrees of freedom as
           vibrations may cause significant error
 Vibrational temperatures:     15.62    44.67    58.34    82.72    89.47
          (Kelvin)            107.31   125.40   150.83   189.16   204.69
                              216.43   262.92   291.11   312.96   334.13
                              345.38   352.70   363.06   373.53   401.43
                              424.22   444.44   462.92   482.12   521.14
                              543.79   552.73   581.74   589.72   629.36
                              694.63   756.87   760.30   808.18   835.37
                              846.22   913.61   973.80  1006.93  1034.52
                             1088.98  1184.32  1193.22  1225.95  1243.21
                             1295.47  1315.72  1321.78  1351.14  1353.52
                             1390.80  1417.45  1436.27  1451.66  1463.27
                             1477.84  1508.47  1559.95  1573.26  1610.61
                             1621.14  1633.58  1655.47  1667.17  1728.84
                             1734.94  1745.56  1758.45  1770.24  1803.07
                             1813.24  1847.40  1853.39  1867.67  1895.52
                             1897.66  1909.15  1910.68  1974.74  1994.33
                             2019.33  2020.39  2031.46  2032.61  2039.64
                             2044.56  2048.25  2081.48  2102.59  2106.32
                             2110.31  2119.38  2124.51  2126.30  2127.36
                             2131.09  2135.27  2146.72  2151.03  2151.71
                             2153.34  2159.61  2162.44  2169.96  2183.62
                             2233.23  2534.16  4298.96  4329.79  4333.29
                             4335.22  4336.45  4353.53  4354.81  4365.67
                             4368.67  4369.59  4371.48  4378.64  4395.62
                             4401.57  4411.84  4431.64  4443.70  4467.04
                             4482.42  4483.63  4485.33  4491.31  4495.80
                             4501.01  4523.09  4526.94  4539.80  4548.67

 Zero-point correction=                           0.416438 (Hartree/Particle)
 Thermal correction to Energy=                    0.438890
 Thermal correction to Enthalpy=                  0.439835
 Thermal correction to Gibbs Free Energy=         0.363636
 Sum of electronic and zero-point Energies=           -854.754702
 Sum of electronic and thermal Energies=              -854.732250
 Sum of electronic and thermal Enthalpies=            -854.731306
 Sum of electronic and thermal Free Energies=         -854.807505

                     E (Thermal)             CV                S
                      KCal/Mol        Cal/Mol-Kelvin    Cal/Mol-Kelvin
 Total                  275.408             83.963            160.374
 Electronic               0.000              0.000              0.000
 Translational            0.889              2.981             42.670
 Rotational               0.889              2.981             34.324
 Vibrational            273.630             78.001             83.380
 Vibration     1          0.593              1.987              7.847
 Vibration     2          0.594              1.983              5.761
 Vibration     3          0.594              1.981              5.232
 Vibration     4          0.596              1.975              4.541
 Vibration     5          0.597              1.972              4.387
 Vibration     6          0.599              1.966              4.029
 Vibration     7          0.601              1.958              3.723
 Vibration     8          0.605              1.945              3.362
 Vibration     9          0.612              1.922              2.924
 Vibration    10          0.616              1.911              2.773
 Vibration    11          0.618              1.902              2.667
 Vibration    12          0.630              1.863              2.300
 Vibration    13          0.639              1.837              2.112
 Vibration    14          0.646              1.814              1.980
 Vibration    15          0.653              1.792              1.862
 Vibration    16          0.657              1.779              1.802
 Vibration    17          0.660              1.771              1.765
 Vibration    18          0.664              1.759              1.714
 Vibration    19          0.668              1.746              1.664
 Vibration    20          0.679              1.712              1.540
 Vibration    21          0.689              1.683              1.446
 Vibration    22          0.698              1.657              1.368
 Vibration    23          0.707              1.632              1.301
 Vibration    24          0.716              1.605              1.235
 Vibration    25          0.736              1.550              1.113
 Vibration    26          0.748              1.517              1.047
 Vibration    27          0.753              1.504              1.023
 Vibration    28          0.770              1.461              0.947
 Vibration    29          0.774              1.449              0.927
 Vibration    30          0.798              1.389              0.835
 Vibration    31          0.839              1.288              0.703
 Vibration    32          0.881              1.192              0.596
 Vibration    33          0.883              1.187              0.591
 Vibration    34          0.917              1.114              0.520
 Vibration    35          0.937              1.073              0.484
 Vibration    36          0.945              1.057              0.470

                           ! Non-Optimized Parameters !
 Normal termination of Gaussian 16 at Thu Nov  2 21:49:01 2023.
