 Gaussian 16, Revision C.01,
 Gaussian 16:  ES64L-G16RevC.01  3-Jul-2019

 ----------------------------------------------------
 # m06/genecp scf=tight int=ultrafine 5d freq=noraman
 ----------------------------------------------------

 ------
 OPT-TS
 ------
 Symbolic Z-matrix:
 Charge =  0 Multiplicity = 1

                         Standard orientation:
 ---------------------------------------------------------------------
 Center     Atomic      Atomic             Coordinates (Angstroms)
 Number     Number       Type             X           Y           Z
 ---------------------------------------------------------------------
      1          6           0        2.405642    0.911918    0.020102
      2          6           0        0.174303    1.635401    0.023762
      3          6           0        0.577095    2.950700    0.016552
      4          6           0        1.934755    3.278898    0.013622
      5          6           0        2.838664    2.237627    0.017842
      6          6           0        3.322411   -0.223803    0.012992
      7          6           0        3.467828   -2.534404   -0.038889
      8          6           0        4.853488   -2.504115   -0.006939
      9          6           0        5.485590   -1.264716    0.037982
     10          6           0        4.713681   -0.113495    0.048442
     11          1           0       -0.876847    1.359822    0.040252
     12          1           0        2.258537    4.317118    0.005872
     13          1           0        3.905204    2.446376    0.012482
     14          1           0        2.921447   -3.476693   -0.074159
     15          1           0        6.570950   -1.195128    0.065932
     16          1           0        5.194092    0.860904    0.087902
     17          7           0        1.061742    0.600759    0.020622
     18          7           0        2.715979   -1.429233   -0.029219
     19         77           0        0.487650   -1.241900   -0.024409
     20          8           0       -2.329839    0.079884    0.299102
     21          5           0       -1.529050   -1.031207    0.011292
     22          8           0       -2.349711   -2.129886   -0.263629
     23          6           0       -3.681949   -0.232504   -0.061839
     24          6           0       -3.700591   -1.781174    0.073082
     25          6           0       -3.947762   -2.249084    1.501622
     26          1           0       -3.734393   -3.323714    1.561022
     27          1           0       -3.283431   -1.733515    2.207081
     28          1           0       -4.988451   -2.086753    1.813832
     29          6           0       -4.649102   -2.489933   -0.872959
     30          1           0       -4.597523   -3.573573   -0.706559
     31          1           0       -5.686852   -2.169422   -0.699699
     32          1           0       -4.392942   -2.298553   -1.920629
     33          6           0       -3.885848    0.247046   -1.493669
     34          1           0       -3.225259   -0.288045   -2.188129
     35          1           0       -4.924759    0.120487   -1.827029
     36          1           0       -3.635837    1.315106   -1.543699
     37          6           0       -4.624108    0.506637    0.866882
     38          1           0       -5.669078    0.227638    0.668462
     39          1           0       -4.399598    0.301647    1.919182
     40          1           0       -4.525457    1.588287    0.706482
     41          6           0       -0.437504    4.052091    0.016322
     42          9           0       -0.316793    4.808321    1.114742
     43          9           0       -0.251922    4.865351   -1.032088
     44          9           0       -1.689254    3.599463   -0.033979
     45          1           0        5.420927   -3.431086   -0.016709
 ---------------------------------------------------------------------

 SCF Done:  E(RM06) =  -1347.58944316     A.U. after   20 cycles

 The electronic state is 1-A.
 Alpha  occ. eigenvalues --  -24.82576 -24.82061 -24.82006 -19.19796 -19.19476
 Alpha  occ. eigenvalues --  -14.48836 -14.44967 -10.50765 -10.32344 -10.32048
 Alpha  occ. eigenvalues --  -10.31220 -10.30044 -10.29309 -10.28905 -10.28900
 Alpha  occ. eigenvalues --  -10.28843 -10.28796 -10.28780 -10.28587 -10.28369
 Alpha  occ. eigenvalues --  -10.22353 -10.22302 -10.22016 -10.21905  -6.77236
 Alpha  occ. eigenvalues --   -3.59942  -2.04457  -2.01672  -1.99450  -1.35137
 Alpha  occ. eigenvalues --   -1.26646  -1.26096  -1.05488  -1.00820  -0.98579
 Alpha  occ. eigenvalues --   -0.98121  -0.86084  -0.84361  -0.83765  -0.79925
 Alpha  occ. eigenvalues --   -0.79169  -0.74420  -0.73556  -0.69947  -0.69031
 Alpha  occ. eigenvalues --   -0.68759  -0.67239  -0.65653  -0.64459  -0.61324
 Alpha  occ. eigenvalues --   -0.61129  -0.60989  -0.60256  -0.57450  -0.54111
 Alpha  occ. eigenvalues --   -0.54033  -0.52718  -0.52459  -0.50716  -0.49205
 Alpha  occ. eigenvalues --   -0.48586  -0.48490  -0.47735  -0.47299  -0.46950
 Alpha  occ. eigenvalues --   -0.46156  -0.45742  -0.45141  -0.44806  -0.44390
 Alpha  occ. eigenvalues --   -0.44056  -0.43841  -0.43041  -0.42942  -0.42399
 Alpha  occ. eigenvalues --   -0.40509  -0.39614  -0.39508  -0.39438  -0.39066
 Alpha  occ. eigenvalues --   -0.38622  -0.37878  -0.36893  -0.36215  -0.35731
 Alpha  occ. eigenvalues --   -0.35559  -0.34427  -0.34220  -0.33185  -0.32509
 Alpha  occ. eigenvalues --   -0.31663  -0.31125  -0.29740  -0.27461  -0.25976
 Alpha  occ. eigenvalues --   -0.24013  -0.21020  -0.19161  -0.18007  -0.16917
 Alpha virt. eigenvalues --   -0.08211  -0.04801  -0.04253  -0.03560   0.00673
 Alpha virt. eigenvalues --    0.00899   0.02126   0.03500   0.07572   0.08568
 Alpha virt. eigenvalues --    0.09611   0.10399   0.10722   0.11942   0.12823

 Mulliken charges:
               1
     1  C    0.315135
     2  C    0.024095
     3  C   -0.071226
     4  C   -0.165914
     5  C   -0.183650
     6  C    0.302393
     7  C    0.030603
     8  C   -0.168489
     9  C   -0.141760
    10  C   -0.179390
    11  H    0.267878
    12  H    0.195076
    13  H    0.173078
    14  H    0.188291
    15  H    0.183510
    16  H    0.173119
    17  N   -0.658813
    18  N   -0.524395
    19  Ir   0.204014
    20  O   -0.536268
    21  B    0.355102
    22  O   -0.524596
    23  C    0.305459
    24  C    0.301532
    25  C   -0.512050
    26  H    0.169890
    27  H    0.177967
    28  H    0.147993
    29  C   -0.509197
    30  H    0.168692
    31  H    0.147859
    32  H    0.171823
    33  C   -0.511636
    34  H    0.179027
    35  H    0.149808
    36  H    0.165511
    37  C   -0.508947
    38  H    0.149118
    39  H    0.171914
    40  H    0.168505
    41  C    0.962267
    42  F   -0.313807
    43  F   -0.316075
    44  F   -0.306648
    45  H    0.183201
 Sum of Mulliken charges =  -0.00000

 Dipole moment (field-independent basis, Debye):
    X=              6.0219    Y=             -0.4661    Z=             -0.0043  Tot=              6.0399
 Quadrupole moment (field-independent basis, Debye-Ang):
   XX=           -124.4323   YY=           -161.2440   ZZ=           -172.2335
   XY=             -0.5018   XZ=              0.3022   YZ=             -0.9963

  Exact polarizability:     386.340      -2.056     311.796       1.097      -0.595     145.234
 Approx polarizability:     541.394      27.434     541.981       3.093       3.531     240.196

                      1                      2                      3
                      A                      A                      A
 Frequencies --     19.5067                20.6487                34.2971
 Red. masses --      5.8382                10.0495                 4.2608
 Frc consts  --      0.0013                 0.0025                 0.0030
 IR Inten    --      1.6659                 0.0039                 0.0244

                      4                      5                      6
                      A                      A                      A
 Frequencies --     44.7907                52.7247                64.3787
 Red. masses --      6.4802                 4.9485                 4.5754
 Frc consts  --      0.0077                 0.0081                 0.0112
 IR Inten    --      0.0766                 0.5799                 0.8051

                      7                      8                      9
                      A                      A                      A
 Frequencies --    100.2331               106.8451               119.9178
 Red. masses --      5.2188                 7.9509                 4.0780
 Frc consts  --      0.0309                 0.0535                 0.0346
 IR Inten    --      0.1600                 0.1662                 0.1025

                     10                     11                     12
                      A                      A                      A
 Frequencies --    128.0698               132.5132               158.0779
 Red. masses --      5.1819                 6.5241                 6.9264
 Frc consts  --      0.0501                 0.0675                 0.1020
 IR Inten    --      0.2115                 0.9468                 1.4077

                     13                     14                     15
                      A                      A                      A
 Frequencies --    167.1183               197.0188               221.8563
 Red. masses --      5.1090                 3.0624                 1.3963
 Frc consts  --      0.0841                 0.0700                 0.0405
 IR Inten    --      2.9427                 0.8436                 0.0119

                     16                     17                     18
                      A                      A                      A
 Frequencies --    236.0644               241.0018               245.5832
 Red. masses --      1.3944                 6.0551                 6.4256
 Frc consts  --      0.0458                 0.2072                 0.2283
 IR Inten    --      1.2527                 2.6951                 0.2690

                     19                     20                     21
                      A                      A                      A
 Frequencies --    250.4708               283.1146               298.9735
 Red. masses --      5.3048                 5.5283                 2.5316
 Frc consts  --      0.1961                 0.2611                 0.1333
 IR Inten    --      1.9411                 0.5044                 1.2489

                     22                     23                     24
                      A                      A                      A
 Frequencies --    305.2339               325.9319               341.2983
 Red. masses --      2.5693                 1.1260                 1.1195
 Frc consts  --      0.1410                 0.0705                 0.0768
 IR Inten    --      0.1879                 0.1600                 0.1353

                     25                     26                     27
                      A                      A                      A
 Frequencies --    369.0446               369.6102               378.6883
 Red. masses --      3.0282                 3.2606                 2.2712
 Frc consts  --      0.2430                 0.2624                 0.1919
 IR Inten    --      0.6493                 0.8279                 0.0660

                     28                     29                     30
                      A                      A                      A
 Frequencies --    407.2090               409.5265               415.6906
 Red. masses --      2.5963                 3.5241                 8.7649
 Frc consts  --      0.2537                 0.3482                 0.8924
 IR Inten    --      0.6129                 0.3755                 4.9989

                     31                     32                     33
                      A                      A                      A
 Frequencies --    432.3773               440.5785               471.7033
 Red. masses --      3.4588                 3.8389                 8.2596
 Frc consts  --      0.3810                 0.4390                 1.0828
 IR Inten    --     10.3146                 1.7986                 4.2458

                     34                     35                     36
                      A                      A                      A
 Frequencies --    490.5771               494.2369               502.0470
 Red. masses --      3.2435                 6.5964                 4.1433
 Frc consts  --      0.4599                 0.9493                 0.6153
 IR Inten    --      2.3293                 1.2033                 1.6555

                     37                     38                     39
                      A                      A                      A
 Frequencies --    530.2759               546.0918               588.7118
 Red. masses --      3.3827                 4.2463                 4.1714
 Frc consts  --      0.5604                 0.7461                 0.8518
 IR Inten    --      2.3503                 0.5363                 4.9087

                     40                     41                     42
                      A                      A                      A
 Frequencies --    599.8686               600.1126               632.6039
 Red. masses --      9.0853                 7.3775                 7.1703
 Frc consts  --      1.9262                 1.5654                 1.6906
 IR Inten    --      2.8660                 3.6206                 3.7167

                     43                     44                     45
                      A                      A                      A
 Frequencies --    635.6947               672.9052               689.7131
 Red. masses --      4.7765                 7.6700                 3.2222
 Frc consts  --      1.1373                 2.0462                 0.9031
 IR Inten    --      0.0918                 1.8953                 4.4343

                     46                     47                     48
                      A                      A                      A
 Frequencies --    699.6304               718.4959               748.1915
 Red. masses --      9.1827                 4.1624                 1.7566
 Frc consts  --      2.6483                 1.2660                 0.5794
 IR Inten    --     24.6650                18.8012                14.7617

                     49                     50                     51
                      A                      A                      A
 Frequencies --    758.5687               788.1553               797.2017
 Red. masses --      7.7069                 1.8722                11.0246
 Frc consts  --      2.6129                 0.6852                 4.1281
 IR Inten    --     15.5568                38.1214                14.1221

                     52                     53                     54
                      A                      A                      A
 Frequencies --    824.4362               845.9144               878.0026
 Red. masses --      1.9251                 9.3501                 3.1913
 Frc consts  --      0.7709                 3.9420                 1.4495
 IR Inten    --      7.5163                30.8569                 4.9972

                     55                     56                     57
                      A                      A                      A
 Frequencies --    885.4037               899.5809               933.9494
 Red. masses --      1.3820                 2.1457                 1.3150
 Frc consts  --      0.6383                 1.0231                 0.6758
 IR Inten    --      0.1830                16.6811                 0.1289

                     58                     59                     60
                      A                      A                      A
 Frequencies --    937.6023               940.1416               960.4667
 Red. masses --      1.5105                 1.4207                 1.3933
 Frc consts  --      0.7824                 0.7398                 0.7573
 IR Inten    --      0.0371                 0.0895                 0.1527

                     61                     62                     63
                      A                      A                      A
 Frequencies --    972.9594               977.8145               991.5949
 Red. masses --      1.3509                 1.6755                 1.3028
 Frc consts  --      0.7535                 0.9439                 0.7547
 IR Inten    --      3.1293                 4.7723                 0.0540

                     64                     65                     66
                      A                      A                      A
 Frequencies --    994.4874              1007.6721              1015.0466
 Red. masses --      1.7506                 1.3129                 5.4113
 Frc consts  --      1.0201                 0.7854                 3.2849
 IR Inten    --      7.0373                 0.2574                 9.8593

                     67                     68                     69
                      A                      A                      A
 Frequencies --   1020.0615              1048.6556              1066.4066
 Red. masses --      1.4576                 6.7227                 4.1794
 Frc consts  --      0.8936                 4.3557                 2.8004
 IR Inten    --      0.2608                10.2321                36.6403

                     70                     71                     72
                      A                      A                      A
 Frequencies --   1086.7116              1118.9471              1123.8353
 Red. masses --      1.8420                 3.4359                 2.0229
 Frc consts  --      1.2816                 2.5346                 1.5053
 IR Inten    --     13.4518                51.8565                52.9314

                     73                     74                     75
                      A                      A                      A
 Frequencies --   1140.1906              1155.8666              1170.8051
 Red. masses --      2.2404                 1.2808                 3.3540
 Frc consts  --      1.7160                 1.0082                 2.7088
 IR Inten    --     63.7847                38.0652              1121.1876

                     76                     77                     78
                      A                      A                      A
 Frequencies --   1181.2958              1200.6370              1207.5580
 Red. masses --      1.4833                 2.7479                 3.0925
 Frc consts  --      1.2195                 2.3339                 2.6569
 IR Inten    --    351.2670                25.7087                 5.3933

                     79                     80                     81
                      A                      A                      A
 Frequencies --   1240.1825              1246.7814              1259.3445
 Red. masses --     12.5858                 4.0572                 3.1567
 Frc consts  --     11.4052                 3.7158                 2.9497
 IR Inten    --    242.6946               139.4563                 2.9307

                     82                     83                     84
                      A                      A                      A
 Frequencies --   1266.9209              1281.8787              1297.2252
 Red. masses --      6.9732                 2.8994                 1.7073
 Frc consts  --      6.5945                 2.8070                 1.6928
 IR Inten    --    167.9561                 0.9047                51.7692

                     85                     86                     87
                      A                      A                      A
 Frequencies --   1305.8446              1324.4550              1332.3822
 Red. masses --      4.5575                 3.0319                 1.8923
 Frc consts  --      4.5789                 3.1335                 1.9792
 IR Inten    --     90.8582                 0.9536                60.8787

                     88                     89                     90
                      A                      A                      A
 Frequencies --   1349.4151              1351.7793              1387.3067
 Red. masses --      4.6949                 2.8754                 3.7489
 Frc consts  --      5.0369                 3.0958                 4.2511
 IR Inten    --     12.4846                22.4796               427.1729

                     91                     92                     93
                      A                      A                      A
 Frequencies --   1403.0514              1403.9852              1410.9755
 Red. masses --      1.3508                 1.5006                 1.3095
 Frc consts  --      1.5667                 1.7428                 1.5360
 IR Inten    --     30.1086                 1.0465                13.4361

                     94                     95                     96
                      A                      A                      A
 Frequencies --   1419.8795              1435.5674              1464.2038
 Red. masses --      1.2727                 2.3680                 1.0561
 Frc consts  --      1.5117                 2.8753                 1.3340
 IR Inten    --     13.2633                27.7349                 0.3033

                     97                     98                     99
                      A                      A                      A
 Frequencies --   1470.8109              1475.6459              1477.4962
 Red. masses --      1.0520                 2.7621                 1.0512
 Frc consts  --      1.3408                 3.5436                 1.3521
 IR Inten    --      1.3552                 0.4098                 1.4660

                    100                    101                    102
                      A                      A                      A
 Frequencies --   1481.5778              1495.2851              1499.9649
 Red. masses --      1.0521                 1.0479                 1.0746
 Frc consts  --      1.3607                 1.3805                 1.4245
 IR Inten    --      9.9549                 3.7782                 2.3294

                    103                    104                    105
                      A                      A                      A
 Frequencies --   1504.0080              1510.3868              1517.2633
 Red. masses --      1.0655                 2.6353                 1.0602
 Frc consts  --      1.4201                 3.5421                 1.4380
 IR Inten    --      2.4369                25.4553                 4.2221

                    106                    107                    108
                      A                      A                      A
 Frequencies --   1533.0117              1612.8287              1637.0836
 Red. masses --      3.8781                 5.2829                 6.6948
 Frc consts  --      5.3699                 8.0965                10.5714
 IR Inten    --     36.3861                26.9671                23.7127

                    109                    110                    111
                      A                      A                      A
 Frequencies --   1660.5937              1683.2196              3032.2705
 Red. masses --      6.0090                 6.3717                 1.0371
 Frc consts  --      9.7629                10.6362                 5.6182
 IR Inten    --     17.6430                 1.7040                 4.3333

                    112                    113                    114
                      A                      A                      A
 Frequencies --   3033.8218              3035.5262              3039.4749
 Red. masses --      1.0370                 1.0379                 1.0382
 Frc consts  --      5.6233                 5.6350                 5.6510
 IR Inten    --     25.2802                15.9440                50.2536

                    115                    116                    117
                      A                      A                      A
 Frequencies --   3113.4894              3115.6802              3121.9012
 Red. masses --      1.1013                 1.1014                 1.1026
 Frc consts  --      6.2900                 6.2993                 6.3315
 IR Inten    --      9.9064                 4.6037                 4.6871

                    118                    119                    120
                      A                      A                      A
 Frequencies --   3124.1068              3126.2088              3128.1218
 Red. masses --      1.1020                 1.1027                 1.1026
 Frc consts  --      6.3368                 6.3495                 6.3567
 IR Inten    --     74.6284                 8.5491                37.0987

                    121                    122                    123
                      A                      A                      A
 Frequencies --   3143.5502              3144.1549              3169.9030
 Red. masses --      1.1011                 1.1012                 1.0902
 Frc consts  --      6.4109                 6.4137                 6.4541
 IR Inten    --     11.2932                22.3897                 8.2967

                    124                    125                    126
                      A                      A                      A
 Frequencies --   3186.5769              3196.9331              3204.7414
 Red. masses --      1.0882                 1.0891                 1.0938
 Frc consts  --      6.5104                 6.5581                 6.6187
 IR Inten    --      3.2905                 1.2651                 3.4030

                    127                    128                    129
                      A                      A                      A
 Frequencies --   3208.5137              3210.7730              3214.7509
 Red. masses --      1.0958                 1.0982                 1.0947
 Frc consts  --      6.6463                 6.6704                 6.6659
 IR Inten    --    142.7011                13.2828                13.4217

 - Thermochemistry -
 -------------------
 Temperature   298.150 Kelvin.  Pressure   1.00000 Atm.
 Atom     1 has atomic number  6 and mass  12.00000

 Molecular mass:   544.11247 amu.
 Principal axes and moments of inertia in atomic units:
                           1         2         3
     Eigenvalues --  9553.76418********************
           X            0.99708   0.07630   0.00021
           Y           -0.07630   0.99708  -0.00209
           Z           -0.00037   0.00207   1.00000
 This molecule is an asymmetric top.
 Rotational symmetry number  1.
 Warning -- assumption of classical behavior for rotation
           may cause significant error
 Rotational temperatures (Kelvin)      0.00907     0.00680     0.00408
 Rotational constants (GHZ):           0.18890     0.14177     0.08506
 Zero-point vibrational energy     910119.4 (Joules/Mol)
                                  217.52375 (Kcal/Mol)
 Warning -- explicit consideration of  41 degrees of freedom as
           vibrations may cause significant error
 Vibrational temperatures:     28.07    29.71    49.35    64.44    75.86
          (Kelvin)             92.63   144.21   153.73   172.53   184.26
                              190.66   227.44   240.45   283.47   319.20
                              339.64   346.75   353.34   360.37   407.34
                              430.16   439.16   468.94   491.05   530.97
                              531.79   544.85   585.88   589.22   598.09
                              622.09   633.89   678.68   705.83   711.10
                              722.33   762.95   785.70   847.02   863.08
                              863.43   910.18   914.62   968.16   992.34
                             1006.61  1033.76  1076.48  1091.41  1133.98
                             1147.00  1186.18  1217.08  1263.25  1273.90
                             1294.30  1343.74  1349.00  1352.65  1381.90
                             1399.87  1406.86  1426.68  1430.85  1449.82
                             1460.43  1467.64  1508.78  1534.32  1563.54
                             1609.92  1616.95  1640.48  1663.03  1684.53
                             1699.62  1727.45  1737.41  1784.35  1793.84
                             1811.92  1822.82  1844.34  1866.42  1878.82
                             1905.60  1917.00  1941.51  1944.91  1996.02
                             2018.68  2020.02  2030.08  2042.89  2065.46
                             2106.66  2116.17  2123.13  2125.79  2131.66
                             2151.38  2158.11  2163.93  2173.11  2183.00
                             2205.66  2320.50  2355.40  2389.22  2421.78
                             4362.76  4364.99  4367.45  4373.13  4479.62
                             4482.77  4491.72  4494.89  4497.92  4500.67
                             4522.87  4523.74  4560.78  4584.77  4599.67
                             4610.91  4616.34  4619.59  4625.31

 Zero-point correction=                           0.346646 (Hartree/Particle)
 Thermal correction to Energy=                    0.371081
 Thermal correction to Enthalpy=                  0.372025
 Thermal correction to Gibbs Free Energy=         0.290462
 Sum of electronic and zero-point Energies=          -1347.242797
 Sum of electronic and thermal Energies=             -1347.218362
 Sum of electronic and thermal Enthalpies=           -1347.217418
 Sum of electronic and thermal Free Energies=        -1347.298981

                     E (Thermal)             CV                S
                      KCal/Mol        Cal/Mol-Kelvin    Cal/Mol-Kelvin
 Total                  232.857             93.877            171.665
 Electronic               0.000              0.000              0.000
 Translational            0.889              2.981             44.767
 Rotational               0.889              2.981             36.199
 Vibrational            231.080             87.915             90.699
 Vibration     1          0.593              1.986              6.684
 Vibration     2          0.593              1.986              6.571
 Vibration     3          0.594              1.983              5.564
 Vibration     4          0.595              1.979              5.035
 Vibration     5          0.596              1.977              4.712
 Vibration     6          0.597              1.971              4.318
 Vibration     7          0.604              1.949              3.450
 Vibration     8          0.606              1.944              3.325
 Vibration     9          0.609              1.933              3.102
 Vibration    10          0.611              1.925              2.975
 Vibration    11          0.613              1.921              2.909
 Vibration    12          0.621              1.894              2.573
 Vibration    13          0.624              1.883              2.468
 Vibration    14          0.636              1.844              2.161
 Vibration    15          0.648              1.808              1.944
 Vibration    16          0.655              1.786              1.832
 Vibration    17          0.658              1.778              1.795
 Vibration    18          0.660              1.770              1.762
 Vibration    19          0.663              1.762              1.727
 Vibration    20          0.682              1.705              1.515
 Vibration    21          0.692              1.676              1.423
 Vibration    22          0.696              1.664              1.388
 Vibration    23          0.710              1.624              1.280
 Vibration    24          0.721              1.593              1.206
 Vibration    25          0.741              1.536              1.084
 Vibration    26          0.742              1.535              1.081
 Vibration    27          0.749              1.516              1.044
 Vibration    28          0.772              1.455              0.937
 Vibration    29          0.774              1.450              0.928
 Vibration    30          0.779              1.436              0.907
 Vibration    31          0.793              1.400              0.851
 Vibration    32          0.800              1.382              0.825
 Vibration    33          0.829              1.313              0.733
 Vibration    34          0.846              1.271              0.682
 Vibration    35          0.850              1.263              0.673
 Vibration    36          0.857              1.245              0.653
 Vibration    37          0.885              1.183              0.587
 Vibration    38          0.901              1.148              0.552
 Vibration    39          0.946              1.056              0.469
 Vibration    40          0.958              1.032              0.450
 Vibration    41          0.958              1.032              0.449

 Normal termination of Gaussian 16 at Sat Dec  7 19:00:11 2024.
