 Gaussian 16, Revision C.01,
 Gaussian 16:  ES64L-G16RevC.01  3-Jul-2019

 ----------------------------------------------------
 # m06/genecp scf=tight int=ultrafine 5d freq=noraman
 ----------------------------------------------------

 ------
 OPT-TS
 ------
 Symbolic Z-matrix:
 Charge =  0 Multiplicity = 1

                         Standard orientation:
 ---------------------------------------------------------------------
 Center     Atomic      Atomic             Coordinates (Angstroms)
 Number     Number       Type             X           Y           Z
 ---------------------------------------------------------------------
      1          6           0        1.017102    1.999921    0.017351
      2          6           0       -1.311718    1.710372    0.014971
      3          6           0       -1.501557    3.072542    0.024531
      4          6           0       -0.409937    3.944992    0.032831
      5          6           0        0.849033    3.385031    0.029641
      6          6           0        2.327432    1.361761    0.007331
      7          6           0        3.434331   -0.670460   -0.029879
      8          6           0        4.676802   -0.050940   -0.016849
      9          6           0        4.729942    1.338780    0.010071
     10          6           0        3.541652    2.050800    0.021411
     11          1           0       -2.148378    1.016352    0.014711
     12          1           0       -0.556436    5.022532    0.040041
     13          1           0        1.726543    4.026151    0.034241
     14          1           0        3.351741   -1.757820   -0.053299
     15          1           0        5.687802    1.852529    0.019421
     16          1           0        3.566433    3.137000    0.041691
     17          7           0       -0.068848    1.147831    0.010361
     18          7           0        2.289052    0.009511   -0.018589
     19         77           0        0.188771   -0.762939   -0.021269
     20          8           0       -2.941039   -0.775187    0.171221
     21          5           0       -1.723669   -1.435078   -0.008599
     22          8           0       -1.954949   -2.802048   -0.180249
     23          6           0       -4.000989   -1.692507   -0.140079
     24          6           0       -3.330209   -3.067587    0.138591
     25          6           0       -3.385250   -3.468457    1.607031
     26          1           0       -2.717960   -4.325248    1.763041
     27          1           0       -3.041599   -2.651007    2.253981
     28          1           0       -4.398440   -3.760107    1.915351
     29          6           0       -3.831040   -4.206567   -0.726379
     30          1           0       -3.303430   -5.131867   -0.461979
     31          1           0       -4.906720   -4.373157   -0.569459
     32          1           0       -3.657540   -4.012957   -1.790419
     33          6           0       -4.356369   -1.487747   -1.607059
     34          1           0       -3.505859   -1.728117   -2.257949
     35          1           0       -5.216509   -2.099447   -1.910619
     36          1           0       -4.614248   -0.432297   -1.762459
     37          6           0       -5.199719   -1.373317    0.730141
     38          1           0       -6.003569   -2.107116    0.573881
     39          1           0       -4.937279   -1.361347    1.793431
     40          1           0       -5.591078   -0.381326    0.469201
     41          6           0       -2.885297    3.647023    0.030091
     42          9           0       -3.082717    4.389023    1.126761
     43          9           0       -3.062237    4.457913   -1.021009
     44          9           0       -3.831367    2.712003   -0.009049
     45          6           0        5.907341   -0.903381   -0.005939
     46          9           0        6.004311   -1.591711    1.136331
     47          9           0        7.017102   -0.173321   -0.137479
     48          9           0        5.882311   -1.797921   -0.998779
 ---------------------------------------------------------------------

 SCF Done:  E(RM06) =  -1684.52423772     A.U. after   20 cycles

 The electronic state is 1-A.
 Alpha  occ. eigenvalues --  -24.84112 -24.83509 -24.83348 -24.83069 -24.82558
 Alpha  occ. eigenvalues --  -24.82522 -19.20429 -19.20084 -14.49684 -14.46255
 Alpha  occ. eigenvalues --  -10.52273 -10.51298 -10.33704 -10.32874 -10.32829
 Alpha  occ. eigenvalues --  -10.30821 -10.30786 -10.30481 -10.30044 -10.29645
 Alpha  occ. eigenvalues --  -10.29586 -10.29423 -10.29285 -10.29251 -10.22777
 Alpha  occ. eigenvalues --  -10.22687 -10.22419 -10.22309  -6.77912  -3.60821
 Alpha  occ. eigenvalues --   -2.05344  -2.02533  -2.00355  -1.36616  -1.35668
 Alpha  occ. eigenvalues --   -1.28143  -1.27545  -1.27175  -1.26615  -1.06058
 Alpha  occ. eigenvalues --   -1.01909  -0.99323  -0.99138  -0.87474  -0.86477
 Alpha  occ. eigenvalues --   -0.85108  -0.81127  -0.80406  -0.76299  -0.74876
 Alpha  occ. eigenvalues --   -0.72914  -0.70378  -0.70262  -0.69366  -0.67651
 Alpha  occ. eigenvalues --   -0.67145  -0.65876  -0.62664  -0.62549  -0.61865
 Alpha  occ. eigenvalues --   -0.61648  -0.61540  -0.61489  -0.60813  -0.57538
 Alpha  occ. eigenvalues --   -0.55248  -0.54557  -0.53248  -0.52212  -0.50596
 Alpha  occ. eigenvalues --   -0.50114  -0.49963  -0.49197  -0.49024  -0.48719
 Alpha  occ. eigenvalues --   -0.48115  -0.48007  -0.47985  -0.46754  -0.46563
 Alpha  occ. eigenvalues --   -0.46283  -0.46218  -0.45445  -0.45311  -0.44615
 Alpha  occ. eigenvalues --   -0.44365  -0.44016  -0.43824  -0.43755  -0.43410
 Alpha  occ. eigenvalues --   -0.42895  -0.40888  -0.40112  -0.39953  -0.39933
 Alpha  occ. eigenvalues --   -0.39580  -0.39210  -0.38569  -0.37350  -0.36848
 Alpha  occ. eigenvalues --   -0.36607  -0.36011  -0.35156  -0.34875  -0.34371
 Alpha  occ. eigenvalues --   -0.33662  -0.32279  -0.31792  -0.30267  -0.28534
 Alpha  occ. eigenvalues --   -0.26585  -0.24797  -0.21855  -0.20029  -0.18870
 Alpha  occ. eigenvalues --   -0.17787
 Alpha virt. eigenvalues --   -0.09469  -0.05560  -0.05448  -0.04459  -0.00716
 Alpha virt. eigenvalues --    0.00131   0.01743   0.03025   0.07026   0.07418
 Alpha virt. eigenvalues --    0.09176   0.09599   0.10045   0.11619   0.12356

 Mulliken charges:
               1
     1  C    0.315030
     2  C    0.023176
     3  C   -0.071532
     4  C   -0.165510
     5  C   -0.180440
     6  C    0.309386
     7  C    0.018814
     8  C   -0.073031
     9  C   -0.156853
    10  C   -0.188778
    11  H    0.272095
    12  H    0.198284
    13  H    0.175741
    14  H    0.208814
    15  H    0.202693
    16  H    0.181647
    17  N   -0.662207
    18  N   -0.534267
    19  Ir   0.223704
    20  O   -0.537945
    21  B    0.356839
    22  O   -0.525499
    23  C    0.305705
    24  C    0.298992
    25  C   -0.512290
    26  H    0.171904
    27  H    0.177989
    28  H    0.149638
    29  C   -0.509515
    30  H    0.170465
    31  H    0.149263
    32  H    0.172524
    33  C   -0.512310
    34  H    0.179032
    35  H    0.151287
    36  H    0.168229
    37  C   -0.508747
    38  H    0.150845
    39  H    0.172590
    40  H    0.168599
    41  C    0.964420
    42  F   -0.313327
    43  F   -0.314811
    44  F   -0.304928
    45  C    0.965907
    46  F   -0.306485
    47  F   -0.315483
    48  F   -0.309651
 Sum of Mulliken charges =  -0.00000

 Dipole moment (field-independent basis, Debye):
    X=              2.7702    Y=              3.2916    Z=              0.0041  Tot=              4.3022
 Quadrupole moment (field-independent basis, Debye-Ang):
   XX=           -178.6203   YY=           -172.4110   ZZ=           -190.9551
   XY=             20.8282   XZ=              0.4129   YZ=             -0.6592

  Exact polarizability:     402.245      22.112     332.950       0.852      -0.360     154.786
 Approx polarizability:     548.320      21.890     582.239       0.397       3.939     254.955

                      1                      2                      3
                      A                      A                      A
 Frequencies --     17.2275                22.6720                23.5759
 Red. masses --      6.6397                10.3090                 4.7096
 Frc consts  --      0.0012                 0.0031                 0.0015
 IR Inten    --      0.4313                 0.9264                 0.4886

                      4                      5                      6
                      A                      A                      A
 Frequencies --     32.4008                35.8488                47.0887
 Red. masses --      8.5491                14.3179                 6.1069
 Frc consts  --      0.0053                 0.0108                 0.0080
 IR Inten    --      0.0063                 0.0394                 0.1155

                      7                      8                      9
                      A                      A                      A
 Frequencies --     62.4684                68.0206                74.1003
 Red. masses --      4.5824                11.5359                 6.7822
 Frc consts  --      0.0105                 0.0314                 0.0219
 IR Inten    --      0.8222                 0.8069                 0.2737

                     10                     11                     12
                      A                      A                      A
 Frequencies --    107.8747               119.1903               119.4333
 Red. masses --     10.6942                 5.6026                 4.5354
 Frc consts  --      0.0733                 0.0469                 0.0381
 IR Inten    --      1.0527                 0.0438                 0.0676

                     13                     14                     15
                      A                      A                      A
 Frequencies --    128.8201               163.4330               174.0849
 Red. masses --      4.7889                 6.1329                 8.3046
 Frc consts  --      0.0468                 0.0965                 0.1483
 IR Inten    --      0.1483                 2.8398                 1.1483

                     16                     17                     18
                      A                      A                      A
 Frequencies --    175.5910               193.2635               204.4457
 Red. masses --      9.6038                12.4822                 4.8605
 Frc consts  --      0.1745                 0.2747                 0.1197
 IR Inten    --      0.8246                 0.0305                 0.7978

                     19                     20                     21
                      A                      A                      A
 Frequencies --    235.2330               240.7425               242.9647
 Red. masses --      1.2465                 8.3154                 7.8564
 Frc consts  --      0.0406                 0.2839                 0.2732
 IR Inten    --      0.2420                 3.5291                 0.3033

                     22                     23                     24
                      A                      A                      A
 Frequencies --    254.2376               285.8555               297.2173
 Red. masses --      1.1705                 5.1969                 3.0283
 Frc consts  --      0.0446                 0.2502                 0.1576
 IR Inten    --      0.2188                 1.9101                 1.2228

                     25                     26                     27
                      A                      A                      A
 Frequencies --    302.1928               320.9672               331.8238
 Red. masses --      2.0904                 1.1242                 1.1084
 Frc consts  --      0.1125                 0.0682                 0.0719
 IR Inten    --      0.3326                 0.1204                 0.0526

                     28                     29                     30
                      A                      A                      A
 Frequencies --    349.4466               354.7333               366.6595
 Red. masses --      6.5364                 8.0222                 2.4945
 Frc consts  --      0.4703                 0.5948                 0.1976
 IR Inten    --      1.1726                11.5635                 1.3634

                     31                     32                     33
                      A                      A                      A
 Frequencies --    374.6052               397.6944               399.4449
 Red. masses --      2.3094                 4.8058                 6.1994
 Frc consts  --      0.1909                 0.4478                 0.5828
 IR Inten    --      0.3733                 0.9233                 0.7755

                     34                     35                     36
                      A                      A                      A
 Frequencies --    406.4873               416.6345               426.9042
 Red. masses --      2.5405                 4.3757                 7.8157
 Frc consts  --      0.2473                 0.4475                 0.8392
 IR Inten    --      0.3521                 0.1909                 6.7497

                     37                     38                     39
                      A                      A                      A
 Frequencies --    433.2681               460.3423               490.5655
 Red. masses --      3.7080                 5.6884                 2.9591
 Frc consts  --      0.4101                 0.7102                 0.4196
 IR Inten    --     10.5914                 0.6480                 2.5875

                     40                     41                     42
                      A                      A                      A
 Frequencies --    501.3869               505.2418               520.2840
 Red. masses --      8.8195                 4.8266                 8.2312
 Frc consts  --      1.3063                 0.7259                 1.3128
 IR Inten    --      1.5321                 3.2589                 3.4054

                     43                     44                     45
                      A                      A                      A
 Frequencies --    529.0121               538.4109               587.4681
 Red. masses --      3.4068                 5.5233                 4.5065
 Frc consts  --      0.5617                 0.9434                 0.9163
 IR Inten    --      3.2228                 0.0488                 4.5389

                     46                     47                     48
                      A                      A                      A
 Frequencies --    592.5232               594.9880               599.8029
 Red. masses --     10.8604                 6.0723                 9.6307
 Frc consts  --      2.2465                 1.2665                 2.0414
 IR Inten    --      2.1462                 4.0635                 3.0496

                     49                     50                     51
                      A                      A                      A
 Frequencies --    621.4755               639.8290               650.6774
 Red. masses --      7.7374                 4.0229                 8.5754
 Frc consts  --      1.7607                 0.9703                 2.1391
 IR Inten    --      4.2999                 1.1621                 6.5597

                     52                     53                     54
                      A                      A                      A
 Frequencies --    681.9608               689.5424               701.9168
 Red. masses --      8.3954                 3.2527                 9.9479
 Frc consts  --      2.3004                 0.9112                 2.8877
 IR Inten    --     17.5961                 7.4553                42.4213

                     55                     56                     57
                      A                      A                      A
 Frequencies --    718.4239               747.1026               771.7082
 Red. masses --      4.1131                10.1242                 3.1857
 Frc consts  --      1.2508                 3.3294                 1.1178
 IR Inten    --     17.1711                 1.7014                 1.8941

                     58                     59                     60
                      A                      A                      A
 Frequencies --    797.2358               813.6793               819.8863
 Red. masses --     10.9890                11.0899                 1.6853
 Frc consts  --      4.1151                 4.3260                 0.6675
 IR Inten    --     13.5155                 7.0240                26.4401

                     61                     62                     63
                      A                      A                      A
 Frequencies --    845.3478               852.2554               875.7736
 Red. masses --      1.7419                 9.1134                 3.2489
 Frc consts  --      0.7334                 3.9000                 1.4681
 IR Inten    --     18.4289                25.9806                 5.0542

                     64                     65                     66
                      A                      A                      A
 Frequencies --    898.3016               931.1185               936.0347
 Red. masses --      2.1577                 1.3872                 1.3804
 Frc consts  --      1.0258                 0.7086                 0.7126
 IR Inten    --     23.0233                 1.3977                 1.9967

                     67                     68                     69
                      A                      A                      A
 Frequencies --    936.5907               938.7163               968.1719
 Red. masses --      1.5007                 1.4264                 1.3501
 Frc consts  --      0.7756                 0.7406                 0.7457
 IR Inten    --      0.0123                 0.0437                 3.9919

                     70                     71                     72
                      A                      A                      A
 Frequencies --    972.9685               977.1318               993.2446
 Red. masses --      1.3286                 1.6985                 1.7412
 Frc consts  --      0.7410                 0.9555                 1.0121
 IR Inten    --      0.5936                 3.5605                12.5367

                     73                     74                     75
                      A                      A                      A
 Frequencies --   1006.3710              1019.4071              1033.4539
 Red. masses --      1.3215                 1.3820                 4.9466
 Frc consts  --      0.7886                 0.8461                 3.1127
 IR Inten    --      0.1920                 0.0474                13.8973

                     76                     77                     78
                      A                      A                      A
 Frequencies --   1055.1625              1064.2072              1122.2027
 Red. masses --      4.5845                 3.9656                 3.5488
 Frc consts  --      3.0073                 2.6461                 2.6331
 IR Inten    --      5.9594                46.7210                60.0992

                     79                     80                     81
                      A                      A                      A
 Frequencies --   1125.6089              1130.1308              1152.0030
 Red. masses --      2.9695                 2.9832                 1.2474
 Frc consts  --      2.2167                 2.2448                 0.9754
 IR Inten    --    117.0514               156.1555                 8.3546

                     82                     83                     84
                      A                      A                      A
 Frequencies --   1164.8416              1179.0528              1200.8994
 Red. masses --      2.4447                 2.8254                 2.7627
 Frc consts  --      1.9544                 2.3142                 2.3474
 IR Inten    --    532.3539              1027.6551                25.4726

                     85                     86                     87
                      A                      A                      A
 Frequencies --   1207.6456              1241.2641              1250.6410
 Red. masses --      3.2033                12.8219                12.9561
 Frc consts  --      2.7525                11.6394                11.9396
 IR Inten    --     27.0693               232.7105               271.1041

                     88                     89                     90
                      A                      A                      A
 Frequencies --   1251.6152              1259.3546              1262.9937
 Red. masses --      3.8156                 3.3483                 6.3525
 Frc consts  --      3.5217                 3.1288                 5.9703
 IR Inten    --    125.4556                39.0524               174.7599

                     91                     92                     93
                      A                      A                      A
 Frequencies --   1271.7663              1282.8928              1300.3544
 Red. masses --      8.7674                 2.8983                 2.5126
 Frc consts  --      8.3548                 2.8105                 2.5032
 IR Inten    --     62.2891                 1.6118                 1.0773

                     94                     95                     96
                      A                      A                      A
 Frequencies --   1302.6941              1323.6887              1328.0118
 Red. masses --      2.7979                 2.9726                 1.6628
 Frc consts  --      2.7975                 3.0687                 1.7278
 IR Inten    --    243.5860                 1.6845                60.9873

                     97                     98                     99
                      A                      A                      A
 Frequencies --   1348.0278              1349.9791              1381.1131
 Red. masses --      3.8706                 3.0655                 4.1551
 Frc consts  --      4.1441                 3.2916                 4.6698
 IR Inten    --    192.1684                49.2473               813.2969

                    100                    101                    102
                      A                      A                      A
 Frequencies --   1392.5206              1403.0510              1404.7699
 Red. masses --      5.5316                 1.3732                 1.4762
 Frc consts  --      6.3198                 1.5927                 1.7163
 IR Inten    --      2.9938                26.0006                 6.2739

                    103                    104                    105
                      A                      A                      A
 Frequencies --   1411.8458              1420.4644              1425.2444
 Red. masses --      1.3100                 1.2719                 2.7071
 Frc consts  --      1.5385                 1.5121                 3.2399
 IR Inten    --     17.2982                12.8697                29.7644

                    106                    107                    108
                      A                      A                      A
 Frequencies --   1445.0668              1464.6763              1471.8378
 Red. masses --      4.2893                 1.0554                 1.0506
 Frc consts  --      5.2773                 1.3340                 1.3409
 IR Inten    --      6.0365                 0.1287                 1.3959

                    109                    110                    111
                      A                      A                      A
 Frequencies --   1476.9202              1480.8140              1494.5941
 Red. masses --      1.0528                 1.0500                 1.0477
 Frc consts  --      1.3531                 1.3566                 1.3789
 IR Inten    --      0.8774                10.9005                 4.7830

                    112                    113                    114
                      A                      A                      A
 Frequencies --   1500.5303              1501.9606              1515.6467
 Red. masses --      1.0562                 1.0830                 1.0607
 Frc consts  --      1.4012                 1.4394                 1.4357
 IR Inten    --      3.8982                 0.9282                 4.8025

                    115                    116                    117
                      A                      A                      A
 Frequencies --   1524.8528              1532.8197              1611.9095
 Red. masses --      3.2788                 4.1485                 5.4795
 Frc consts  --      4.4917                 5.7428                 8.3883
 IR Inten    --     28.9811                18.7410                28.7029

                    118                    119                    120
                      A                      A                      A
 Frequencies --   1639.9195              1668.5027              1681.9000
 Red. masses --      6.9629                 6.4340                 6.4596
 Frc consts  --     11.0328                10.5533                10.7661
 IR Inten    --     24.0786                82.5143                 0.9375

                    121                    122                    123
                      A                      A                      A
 Frequencies --   3032.5249              3034.0009              3035.8871
 Red. masses --      1.0372                 1.0372                 1.0378
 Frc consts  --      5.6197                 5.6251                 5.6354
 IR Inten    --      4.9451                23.4070                15.6878

                    124                    125                    126
                      A                      A                      A
 Frequencies --   3039.8654              3113.8201              3116.2896
 Red. masses --      1.0382                 1.1012                 1.1016
 Frc consts  --      5.6526                 6.2910                 6.3031
 IR Inten    --     48.1258                 9.8616                 2.9389

                    127                    128                    129
                      A                      A                      A
 Frequencies --   3122.8531              3125.0827              3126.2894
 Red. masses --      1.1028                 1.1021                 1.1031
 Frc consts  --      6.3362                 6.3417                 6.3523
 IR Inten    --      3.4715                73.5269                 4.7102

                    130                    131                    132
                      A                      A                      A
 Frequencies --   3128.0484              3143.5191              3143.8606
 Red. masses --      1.1026                 1.1011                 1.1013
 Frc consts  --      6.3565                 6.4109                 6.4131
 IR Inten    --     37.2976                 7.8123                25.5428

                    133                    134                    135
                      A                      A                      A
 Frequencies --   3168.1195              3196.0212              3202.9254
 Red. masses --      1.0921                 1.0884                 1.0904
 Frc consts  --      6.4585                 6.5502                 6.5909
 IR Inten    --      5.3882                 0.2800                 3.7856

                    136                    137                    138
                      A                      A                      A
 Frequencies --   3205.9847              3212.0203              3217.9709
 Red. masses --      1.0960                 1.0952                 1.0949
 Frc consts  --      6.6370                 6.6572                 6.6801
 IR Inten    --    136.4923                 1.4204                 7.1716

 - Thermochemistry -
 -------------------
 Temperature   298.150 Kelvin.  Pressure   1.00000 Atm.
 Atom     1 has atomic number  6 and mass  12.00000

 Molecular mass:   612.09985 amu.
 Principal axes and moments of inertia in atomic units:
                           1         2         3
     Eigenvalues --  ******************************
           X            0.99814   0.06100   0.00034
           Y           -0.06100   0.99814  -0.00162
           Z           -0.00043   0.00160   1.00000
 This molecule is an asymmetric top.
 Rotational symmetry number  1.
 Warning -- assumption of classical behavior for rotation
           may cause significant error
 Rotational temperatures (Kelvin)      0.00813     0.00379     0.00270
 Rotational constants (GHZ):           0.16940     0.07893     0.05618
 Zero-point vibrational energy     923254.4 (Joules/Mol)
                                  220.66310 (Kcal/Mol)
 Warning -- explicit consideration of  48 degrees of freedom as
           vibrations may cause significant error
 Vibrational temperatures:     24.79    32.62    33.92    46.62    51.58
          (Kelvin)             67.75    89.88    97.87   106.61   155.21
                              171.49   171.84   185.34   235.14   250.47
                              252.64   278.06   294.15   338.45   346.37
                              349.57   365.79   411.28   427.63   434.79
                              461.80   477.42   502.78   510.38   527.54
                              538.97   572.19   574.71   584.84   599.44
                              614.22   623.38   662.33   705.81   721.38
                              726.93   748.57   761.13   774.65   845.24
                              852.51   856.05   862.98   894.16   920.57
                              936.18   981.19   992.10  1009.90  1033.65
                             1074.91  1110.32  1147.04  1170.70  1179.63
                             1216.27  1226.21  1260.04  1292.46  1339.67
                             1346.75  1347.55  1350.60  1392.98  1399.88
                             1405.87  1429.06  1447.94  1466.70  1486.91
                             1518.14  1531.16  1614.60  1619.50  1626.01
                             1657.48  1675.95  1696.39  1727.83  1737.53
                             1785.90  1799.39  1800.80  1811.93  1817.17
                             1829.79  1845.80  1870.92  1874.29  1904.49
                             1910.71  1939.51  1942.32  1987.11  2003.53
                             2018.68  2021.15  2031.33  2043.73  2050.61
                             2079.13  2107.34  2117.65  2124.96  2130.56
                             2150.39  2158.93  2160.99  2180.68  2193.92
                             2205.39  2319.18  2359.48  2400.60  2419.88
                             4363.13  4365.25  4367.96  4373.69  4480.09
                             4483.65  4493.09  4496.30  4498.03  4500.56
                             4522.82  4523.31  4558.22  4598.36  4608.30
                             4612.70  4621.38  4629.94

 Zero-point correction=                           0.351649 (Hartree/Particle)
 Thermal correction to Energy=                    0.379766
 Thermal correction to Enthalpy=                  0.380711
 Thermal correction to Gibbs Free Energy=         0.289663
 Sum of electronic and zero-point Energies=          -1684.172589
 Sum of electronic and thermal Energies=             -1684.144471
 Sum of electronic and thermal Enthalpies=           -1684.143527
 Sum of electronic and thermal Free Energies=        -1684.234575

                     E (Thermal)             CV                S
                      KCal/Mol        Cal/Mol-Kelvin    Cal/Mol-Kelvin
 Total                  238.307            106.361            191.626
 Electronic               0.000              0.000              0.000
 Translational            0.889              2.981             45.118
 Rotational               0.889              2.981             37.301
 Vibrational            236.530            100.400            109.207
 Vibration     1          0.593              1.986              6.931
 Vibration     2          0.593              1.985              6.385
 Vibration     3          0.593              1.985              6.308
 Vibration     4          0.594              1.983              5.677
 Vibration     5          0.594              1.982              5.476
 Vibration     6          0.595              1.979              4.936
 Vibration     7          0.597              1.972              4.378
 Vibration     8          0.598              1.969              4.210
 Vibration     9          0.599              1.966              4.041
 Vibration    10          0.606              1.943              3.307
 Vibration    11          0.609              1.933              3.113
 Vibration    12          0.609              1.933              3.110
 Vibration    13          0.611              1.924              2.964
 Vibration    14          0.623              1.887              2.510
 Vibration    15          0.627              1.874              2.391
 Vibration    16          0.628              1.872              2.375
 Vibration    17          0.635              1.849              2.196
 Vibration    18          0.640              1.834              2.093
 Vibration    19          0.655              1.787              1.839
 Vibration    20          0.658              1.778              1.797
 Vibration    21          0.659              1.774              1.781
 Vibration    22          0.665              1.756              1.701
 Vibration    23          0.684              1.700              1.498
 Vibration    24          0.691              1.679              1.433
 Vibration    25          0.694              1.670              1.405
 Vibration    26          0.706              1.633              1.305
 Vibration    27          0.714              1.612              1.251
 Vibration    28          0.727              1.576              1.169
 Vibration    29          0.731              1.566              1.145
 Vibration    30          0.740              1.541              1.094
 Vibration    31          0.746              1.524              1.061
 Vibration    32          0.764              1.475              0.971
 Vibration    33          0.765              1.471              0.965
 Vibration    34          0.771              1.456              0.939
 Vibration    35          0.780              1.434              0.903
 Vibration    36          0.789              1.412              0.869
 Vibration    37          0.794              1.398              0.848
 Vibration    38          0.818              1.338              0.765
 Vibration    39          0.846              1.271              0.682
 Vibration    40          0.857              1.247              0.655
 Vibration    41          0.860              1.238              0.645
 Vibration    42          0.875              1.205              0.609
 Vibration    43          0.884              1.186              0.589
 Vibration    44          0.893              1.165              0.569
 Vibration    45          0.945              1.059              0.472
 Vibration    46          0.950              1.048              0.463
 Vibration    47          0.953              1.042              0.458
 Vibration    48          0.958              1.032              0.450

 Normal termination of Gaussian 16 at Sat Dec  7 19:03:40 2024.
