 Gaussian 16, Revision C.01,
 Gaussian 16:  ES64L-G16RevC.01  3-Jul-2019

 ----------------------------------------------------
 # m06/genecp scf=tight int=ultrafine 5d freq=noraman
 ----------------------------------------------------

 ------
 OPT-TS
 ------
 Symbolic Z-matrix:
 Charge =  0 Multiplicity = 1

                         Standard orientation:
 ---------------------------------------------------------------------
 Center     Atomic      Atomic             Coordinates (Angstroms)
 Number     Number       Type             X           Y           Z
 ---------------------------------------------------------------------
      1          6           0        2.461928    1.317412    0.045980
      2          6           0        0.326168    2.286222    0.033430
      3          6           0        0.870288    3.552902    0.078690
      4          6           0        2.253087    3.721182    0.110060
      5          6           0        3.039058    2.583862    0.092180
      6          6           0        3.248379    0.086992    0.019690
      7          6           0        3.137419   -2.225368   -0.065210
      8          6           0        4.517649   -2.349797   -0.045990
      9          6           0        5.283229   -1.188327    0.010430
     10          6           0        4.643739    0.040963    0.043420
     11          1           0       -0.747492    2.122111    0.010550
     12          1           0        2.703257    4.710002    0.146740
     13          1           0        4.122568    2.670943    0.113600
     14          1           0        2.488580   -3.100048   -0.108060
     15          1           0        6.369949   -1.239447    0.028460
     16          1           0        5.229568    0.955723    0.087590
     17          7           0        1.091858    1.158942    0.018700
     18          7           0        2.512889   -1.043748   -0.032880
     19         77           0        0.324199   -0.614298   -0.036640
     20          8           0       -2.406442    0.953761    0.100590
     21          5           0       -1.662301   -0.226429   -0.022880
     22          8           0       -2.542531   -1.313629   -0.127870
     23          6           0       -3.781422    0.650660   -0.171300
     24          6           0       -3.861521   -0.857410    0.195590
     25          6           0       -4.073001   -1.094680    1.686110
     26          1           0       -3.900801   -2.156990    1.899900
     27          1           0       -3.360671   -0.511530    2.283950
     28          1           0       -5.093461   -0.840000    2.003900
     29          6           0       -4.876151   -1.654200   -0.600420
     30          1           0       -4.863461   -2.701460   -0.272030
     31          1           0       -5.892401   -1.262990   -0.445400
     32          1           0       -4.652681   -1.636340   -1.672610
     33          6           0       -4.019782    0.913480   -1.653190
     34          1           0       -3.403391    0.251620   -2.274860
     35          1           0       -5.074012    0.778600   -1.930940
     36          1           0       -3.735862    1.949330   -1.878430
     37          6           0       -4.665632    1.557780    0.661270
     38          1           0       -5.724642    1.283950    0.547550
     39          1           0       -4.404192    1.512480    1.724040
     40          1           0       -4.549292    2.597790    0.329260
     41          1           0        4.978900   -3.333647   -0.074220
     42          1           0        0.195667    4.405562    0.089760
 ---------------------------------------------------------------------

 SCF Done:  E(RM06) =  -1010.65333708     A.U. after   20 cycles

 The electronic state is 1-A.
 Alpha  occ. eigenvalues --  -19.19308 -19.18922 -14.47620 -14.44153 -10.31532
 Alpha  occ. eigenvalues --  -10.30825 -10.30464 -10.28652 -10.28592 -10.28588
 Alpha  occ. eigenvalues --  -10.28404 -10.28045 -10.27631 -10.27619 -10.27227
 Alpha  occ. eigenvalues --  -10.26798 -10.22264 -10.22028 -10.21762 -10.21586
 Alpha  occ. eigenvalues --   -6.76544  -3.58884  -2.03371  -2.00656  -1.98384
 Alpha  occ. eigenvalues --   -1.04949  -0.99746  -0.98042  -0.97055  -0.83947
 Alpha  occ. eigenvalues --   -0.83083  -0.82381  -0.79601  -0.76849  -0.74104
 Alpha  occ. eigenvalues --   -0.69703  -0.68620  -0.67675  -0.66990  -0.64151
 Alpha  occ. eigenvalues --   -0.63114  -0.60781  -0.57260  -0.53670  -0.53065
 Alpha  occ. eigenvalues --   -0.52869  -0.52275  -0.50610  -0.49176  -0.47054
 Alpha  occ. eigenvalues --   -0.46541  -0.45883  -0.45585  -0.45458  -0.45208
 Alpha  occ. eigenvalues --   -0.44114  -0.43550  -0.42734  -0.42174  -0.40216
 Alpha  occ. eigenvalues --   -0.39405  -0.39225  -0.38983  -0.38691  -0.38103
 Alpha  occ. eigenvalues --   -0.37043  -0.36426  -0.35950  -0.35246  -0.34978
 Alpha  occ. eigenvalues --   -0.34129  -0.33086  -0.32273  -0.31532  -0.31163
 Alpha  occ. eigenvalues --   -0.30666  -0.29380  -0.26240  -0.25493  -0.23184
 Alpha  occ. eigenvalues --   -0.19958  -0.18163  -0.16976  -0.15917
 Alpha virt. eigenvalues --   -0.06903  -0.03796  -0.03386  -0.02478   0.01265
 Alpha virt. eigenvalues --    0.02480   0.02613   0.04094   0.08131   0.09569
 Alpha virt. eigenvalues --    0.10147   0.10813   0.12247   0.12448   0.12790

 Mulliken charges:
               1
     1  C    0.308895
     2  C    0.040577
     3  C   -0.173814
     4  C   -0.150256
     5  C   -0.175741
     6  C    0.301926
     7  C    0.030516
     8  C   -0.170199
     9  C   -0.141968
    10  C   -0.181074
    11  H    0.251867
    12  H    0.175070
    13  H    0.164708
    14  H    0.185996
    15  H    0.179722
    16  H    0.169922
    17  N   -0.641133
    18  N   -0.524840
    19  Ir   0.173731
    20  O   -0.543106
    21  B    0.366088
    22  O   -0.530941
    23  C    0.310377
    24  C    0.302800
    25  C   -0.511598
    26  H    0.170082
    27  H    0.177889
    28  H    0.145381
    29  C   -0.509381
    30  H    0.168048
    31  H    0.146046
    32  H    0.171043
    33  C   -0.510992
    34  H    0.180285
    35  H    0.147545
    36  H    0.163369
    37  C   -0.509543
    38  H    0.148873
    39  H    0.171228
    40  H    0.162552
    41  H    0.179571
    42  H    0.180481
 Sum of Mulliken charges =  -0.00000

 Dipole moment (field-independent basis, Debye):
    X=              4.9780    Y=              1.5033    Z=              0.1199  Tot=              5.2015
 Quadrupole moment (field-independent basis, Debye-Ang):
   XX=           -110.8549   YY=           -127.1513   ZZ=           -152.8307
   XY=             -2.3919   XZ=              0.1602   YZ=             -0.0377

  Exact polarizability:     377.035      -4.501     291.890       1.236       1.699     137.581
 Approx polarizability:     528.353      20.421     509.970       4.183       7.986     225.798

                      1                      2                      3
                      A                      A                      A
 Frequencies --     18.3151                19.4830                50.8575
 Red. masses --      5.4041                 3.9457                 4.7134
 Frc consts  --      0.0011                 0.0009                 0.0072
 IR Inten    --      1.1878                 0.0615                 0.8693

                      4                      5                      6
                      A                      A                      A
 Frequencies --     59.3795                79.5628               104.1423
 Red. masses --      4.6029                 4.5504                 4.0147
 Frc consts  --      0.0096                 0.0170                 0.0257
 IR Inten    --      1.0908                 0.0887                 0.0032

                      7                      8                      9
                      A                      A                      A
 Frequencies --    124.0040               135.2889               152.9191
 Red. masses --      3.7030                 6.5495                 5.9431
 Frc consts  --      0.0335                 0.0706                 0.0819
 IR Inten    --      0.0945                 0.8695                 1.6799

                     10                     11                     12
                      A                      A                      A
 Frequencies --    165.9806               198.3776               231.9572
 Red. masses --      4.9425                 3.9354                 1.2989
 Frc consts  --      0.0802                 0.0912                 0.0412
 IR Inten    --      3.6693                 0.9798                 0.1380

                     13                     14                     15
                      A                      A                      A
 Frequencies --    243.8515               248.9723               252.4606
 Red. masses --      1.3454                 4.0646                 3.7839
 Frc consts  --      0.0471                 0.1484                 0.1421
 IR Inten    --      1.3750                 0.3821                 1.8320

                     16                     17                     18
                      A                      A                      A
 Frequencies --    274.3469               296.9233               303.9538
 Red. masses --      5.4831                 2.3861                 2.1149
 Frc consts  --      0.2431                 0.1239                 0.1151
 IR Inten    --      0.9047                 0.8867                 0.4640

                     19                     20                     21
                      A                      A                      A
 Frequencies --    316.7305               343.1346               368.6540
 Red. masses --      1.2091                 1.1265                 2.1676
 Frc consts  --      0.0715                 0.0781                 0.1736
 IR Inten    --      0.0016                 0.0932                 1.1831

                     22                     23                     24
                      A                      A                      A
 Frequencies --    375.4078               380.8995               405.8215
 Red. masses --      2.8185                 4.1049                 3.1474
 Frc consts  --      0.2340                 0.3509                 0.3054
 IR Inten    --      1.3126                 0.7002                 0.8321

                     25                     26                     27
                      A                      A                      A
 Frequencies --    409.3139               430.6811               439.3606
 Red. masses --      2.7242                 3.3548                 3.6832
 Frc consts  --      0.2689                 0.3666                 0.4189
 IR Inten    --      0.6018                10.5004                 0.4083

                     28                     29                     30
                      A                      A                      A
 Frequencies --    453.2005               479.1743               494.6338
 Red. masses --      4.2160                 4.3750                 2.8985
 Frc consts  --      0.5102                 0.5919                 0.4178
 IR Inten    --      2.4103                 4.1654                 2.0344

                     31                     32                     33
                      A                      A                      A
 Frequencies --    529.3962               560.5291               588.0883
 Red. masses --      3.3740                 3.0260                 4.2022
 Frc consts  --      0.5571                 0.5602                 0.8563
 IR Inten    --      2.2085                 0.1303                 4.4608

                     34                     35                     36
                      A                      A                      A
 Frequencies --    596.5266               626.3473               653.6754
 Red. masses --      6.5304                 7.3243                 6.7888
 Frc consts  --      1.3692                 1.6930                 1.7091
 IR Inten    --      5.9505                 2.6813                 4.0990

                     37                     38                     39
                      A                      A                      A
 Frequencies --    675.3133               689.2675               714.0140
 Red. masses --      6.5693                 3.2164                 4.3530
 Frc consts  --      1.7651                 0.9003                 1.3075
 IR Inten    --      7.4251                 4.2581                13.2887

                     40                     41                     42
                      A                      A                      A
 Frequencies --    739.2019               759.4482               778.1497
 Red. masses --      1.7151                 1.2428                 5.8222
 Frc consts  --      0.5522                 0.4223                 2.0771
 IR Inten    --      2.4764                72.4560                 6.9957

                     43                     44                     45
                      A                      A                      A
 Frequencies --    794.8534               801.2448               875.7583
 Red. masses --     10.8972                 2.5092                 1.4639
 Frc consts  --      4.0564                 0.9491                 0.6615
 IR Inten    --     12.8830                 0.9807                 0.1342

                     46                     47                     48
                      A                      A                      A
 Frequencies --    878.4410               885.8131               899.0119
 Red. masses --      3.1356                 1.3016                 2.1222
 Frc consts  --      1.4256                 0.6018                 1.0106
 IR Inten    --      3.6814                 0.1646                14.2421

                     49                     50                     51
                      A                      A                      A
 Frequencies --    936.5230               939.8954               949.0529
 Red. masses --      1.5085                 1.4208                 1.3327
 Frc consts  --      0.7795                 0.7395                 0.7072
 IR Inten    --      0.0631                 0.1322                 0.0813

                     52                     53                     54
                      A                      A                      A
 Frequencies --    957.5310               977.6527               988.3125
 Red. masses --      1.3932                 1.6905                 1.3000
 Frc consts  --      0.7526                 0.9520                 0.7482
 IR Inten    --      0.1271                 2.8936                 0.0475

                     55                     56                     57
                      A                      A                      A
 Frequencies --    994.1361               994.9187              1006.5067
 Red. masses --      1.7381                 1.3024                 1.3374
 Frc consts  --      1.0121                 0.7596                 0.7983
 IR Inten    --      5.4782                 0.1111                 0.1500

                     58                     59                     60
                      A                      A                      A
 Frequencies --   1014.3102              1019.0788              1040.7154
 Red. masses --      5.3976                 1.4489                 7.1264
 Frc consts  --      3.2719                 0.8865                 4.5476
 IR Inten    --     11.9330                 0.7704                75.2093

                     61                     62                     63
                      A                      A                      A
 Frequencies --   1053.1720              1084.8774              1091.4095
 Red. masses --      6.9351                 1.8021                 2.0177
 Frc consts  --      4.5321                 1.2497                 1.4160
 IR Inten    --     28.5812                13.6824                24.5074

                     64                     65                     66
                      A                      A                      A
 Frequencies --   1113.9437              1125.6660              1146.1360
 Red. masses --      3.9010                 1.5809                 1.5595
 Frc consts  --      2.8520                 1.1803                 1.2070
 IR Inten    --     70.4589                17.9383                80.0738

                     67                     68                     69
                      A                      A                      A
 Frequencies --   1164.0047              1172.5104              1179.8100
 Red. masses --      1.3006                 3.7316                 1.1547
 Frc consts  --      1.0382                 3.0225                 0.9470
 IR Inten    --    304.9848              1172.1331                 1.5512

                     70                     71                     72
                      A                      A                      A
 Frequencies --   1199.6185              1207.3813              1245.0795
 Red. masses --      2.7235                 2.9925                 3.9059
 Frc consts  --      2.3092                 2.5702                 3.5675
 IR Inten    --     28.5524                 3.6724               103.8954

                     73                     74                     75
                      A                      A                      A
 Frequencies --   1258.6962              1280.1472              1292.9913
 Red. masses --      3.1190                 2.9158                 1.7012
 Frc consts  --      2.9114                 2.8153                 1.6757
 IR Inten    --      4.5669                 1.1377                 9.0374

                     76                     77                     78
                      A                      A                      A
 Frequencies --   1303.6895              1324.1097              1328.1854
 Red. masses --      2.9350                 3.0426                 1.6986
 Frc consts  --      2.9390                 3.1430                 1.7654
 IR Inten    --     37.8269                 0.8388                 2.8284

                     79                     80                     81
                      A                      A                      A
 Frequencies --   1347.5332              1348.3348              1401.3395
 Red. masses --      5.4796                 2.8765                 1.3506
 Frc consts  --      5.8625                 3.0812                 1.5627
 IR Inten    --      4.4209                 3.2953                27.1216

                     82                     83                     84
                      A                      A                      A
 Frequencies --   1403.2935              1410.9669              1419.6988
 Red. masses --      1.4654                 1.3243                 1.2783
 Frc consts  --      1.7002                 1.5533                 1.5180
 IR Inten    --      5.0941                16.5341                16.4432

                     85                     86                     87
                      A                      A                      A
 Frequencies --   1455.9264              1464.3192              1471.6686
 Red. masses --      1.9772                 1.0567                 1.0511
 Frc consts  --      2.4693                 1.3350                 1.3412
 IR Inten    --     21.4988                 0.2113                 1.4130

                     88                     89                     90
                      A                      A                      A
 Frequencies --   1477.8486              1480.5156              1480.6359
 Red. masses --      1.0505                 1.1158                 2.4006
 Frc consts  --      1.3518                 1.4410                 3.1008
 IR Inten    --      2.8633                 7.5493                 4.9416

                     91                     92                     93
                      A                      A                      A
 Frequencies --   1495.3011              1496.3807              1500.0190
 Red. masses --      1.0472                 2.2088                 1.0732
 Frc consts  --      1.3796                 2.9140                 1.4228
 IR Inten    --      4.6934                60.6310                 3.1256

                     94                     95                     96
                      A                      A                      A
 Frequencies --   1503.6022              1517.1631              1522.4797
 Red. masses --      1.0734                 1.0598                 3.3802
 Frc consts  --      1.4298                 1.4372                 4.6163
 IR Inten    --      4.5133                 4.3640                35.9177

                     97                     98                     99
                      A                      A                      A
 Frequencies --   1597.6711              1636.3709              1660.5226
 Red. masses --      5.1612                 6.6295                 6.0804
 Frc consts  --      7.7620                10.4591                 9.8781
 IR Inten    --      3.0046                18.0273                14.5063

                    100                    101                    102
                      A                      A                      A
 Frequencies --   1671.8634              3030.5638              3032.1189
 Red. masses --      5.9126                 1.0371                 1.0381
 Frc consts  --      9.7371                 5.6119                 5.6232
 IR Inten    --     21.1028                 3.1464                22.6748

                    103                    104                    105
                      A                      A                      A
 Frequencies --   3033.7785              3038.0945              3110.5239
 Red. masses --      1.0373                 1.0381                 1.1017
 Frc consts  --      5.6251                 5.6451                 6.2802
 IR Inten    --     21.7438                55.1331                 9.8709

                    106                    107                    108
                      A                      A                      A
 Frequencies --   3112.3645              3119.9154              3122.1643
 Red. masses --      1.1012                 1.1025                 1.1020
 Frc consts  --      6.2848                 6.3231                 6.3290
 IR Inten    --      9.6871                 8.2154                67.8225

                    109                    110                    111
                      A                      A                      A
 Frequencies --   3126.9803              3128.3320              3141.2955
 Red. masses --      1.1032                 1.1026                 1.1012
 Frc consts  --      6.3556                 6.3578                 6.4024
 IR Inten    --      9.0103                37.5881                15.8801

                    112                    113                    114
                      A                      A                      A
 Frequencies --   3142.5044              3168.0809              3184.4528
 Red. masses --      1.1008                 1.0900                 1.0880
 Frc consts  --      6.4048                 6.4456                 6.5007
 IR Inten    --     21.5099                 7.7525                 2.8667

                    115                    116                    117
                      A                      A                      A
 Frequencies --   3189.3013              3197.9851              3204.7618
 Red. masses --      1.0863                 1.0923                 1.0929
 Frc consts  --      6.5102                 6.5819                 6.6132
 IR Inten    --      3.9413                10.5164                 4.9870

                    118                    119                    120
                      A                      A                      A
 Frequencies --   3208.7548              3212.2414              3219.3264
 Red. masses --      1.0988                 1.0958                 1.0978
 Frc consts  --      6.6657                 6.6621                 6.7036
 IR Inten    --     23.7640                11.1256                76.9082

 - Thermochemistry -
 -------------------
 Temperature   298.150 Kelvin.  Pressure   1.00000 Atm.
 Atom     1 has atomic number  6 and mass  12.00000

 Molecular mass:   476.12508 amu.
 Principal axes and moments of inertia in atomic units:
                           1         2         3
     Eigenvalues --  3899.69564********************
           X            1.00000   0.00223  -0.00004
           Y           -0.00223   0.99999  -0.00364
           Z            0.00003   0.00364   0.99999
 This molecule is an asymmetric top.
 Rotational symmetry number  1.
 Warning -- assumption of classical behavior for rotation
           may cause significant error
 Rotational temperatures (Kelvin)      0.02221     0.00699     0.00559
 Rotational constants (GHZ):           0.46279     0.14562     0.11640
 Zero-point vibrational energy     895882.9 (Joules/Mol)
                                  214.12115 (Kcal/Mol)
 Warning -- explicit consideration of  34 degrees of freedom as
           vibrations may cause significant error
 Vibrational temperatures:     26.35    28.03    73.17    85.43   114.47
          (Kelvin)            149.84   178.41   194.65   220.02   238.81
                              285.42   333.73   350.85   358.22   363.23
                              394.72   427.21   437.32   455.70   493.69
                              530.41   540.13   548.03   583.89   588.91
                              619.65   632.14   652.05   689.42   711.67
                              761.68   806.48   846.13   858.27   901.17
                              940.49   971.63   991.70  1027.31  1063.55
                             1092.68  1119.58  1143.62  1152.81  1260.02
                             1263.88  1274.49  1293.48  1347.45  1352.30
                             1365.48  1377.67  1406.62  1421.96  1430.34
                             1431.47  1448.14  1459.37  1466.23  1497.36
                             1515.28  1560.90  1570.29  1602.72  1619.58
                             1649.03  1674.74  1686.98  1697.48  1725.98
                             1737.15  1791.39  1810.98  1841.85  1860.33
                             1875.72  1905.10  1910.96  1938.80  1939.95
                             2016.21  2019.03  2030.07  2042.63  2094.75
                             2106.83  2117.40  2126.29  2130.13  2130.30
                             2151.40  2152.96  2158.19  2163.35  2182.86
                             2190.51  2298.69  2354.37  2389.12  2405.44
                             4360.31  4362.54  4364.93  4371.14  4475.35
                             4478.00  4488.86  4492.10  4499.03  4500.97
                             4519.62  4521.36  4558.16  4581.72  4588.69
                             4601.19  4610.94  4616.68  4621.70  4631.89

 Zero-point correction=                           0.341224 (Hartree/Particle)
 Thermal correction to Energy=                    0.362030
 Thermal correction to Enthalpy=                  0.362974
 Thermal correction to Gibbs Free Energy=         0.290163
 Sum of electronic and zero-point Energies=          -1010.312113
 Sum of electronic and thermal Energies=             -1010.291307
 Sum of electronic and thermal Enthalpies=           -1010.290363
 Sum of electronic and thermal Free Energies=        -1010.363174

                     E (Thermal)             CV                S
                      KCal/Mol        Cal/Mol-Kelvin    Cal/Mol-Kelvin
 Total                  227.177             81.563            153.245
 Electronic               0.000              0.000              0.000
 Translational            0.889              2.981             44.370
 Rotational               0.889              2.981             34.970
 Vibrational            225.400             75.601             73.905
 Vibration     1          0.593              1.986              6.809
 Vibration     2          0.593              1.986              6.686
 Vibration     3          0.595              1.977              4.784
 Vibration     4          0.597              1.974              4.478
 Vibration     5          0.600              1.963              3.902
 Vibration     6          0.605              1.946              3.375
 Vibration     7          0.610              1.929              3.037
 Vibration     8          0.613              1.918              2.869
 Vibration     9          0.619              1.899              2.636
 Vibration    10          0.624              1.884              2.481
 Vibration    11          0.637              1.842              2.148
 Vibration    12          0.653              1.792              1.864
 Vibration    13          0.659              1.773              1.775
 Vibration    14          0.662              1.764              1.738
 Vibration    15          0.664              1.759              1.713
 Vibration    16          0.677              1.721              1.569
 Vibration    17          0.691              1.679              1.434
 Vibration    18          0.695              1.666              1.395
 Vibration    19          0.704              1.642              1.327
 Vibration    20          0.722              1.589              1.198
 Vibration    21          0.741              1.537              1.085
 Vibration    22          0.746              1.522              1.058
 Vibration    23          0.751              1.511              1.036
 Vibration    24          0.771              1.458              0.941
 Vibration    25          0.774              1.450              0.929
 Vibration    26          0.792              1.403              0.856
 Vibration    27          0.799              1.384              0.829
 Vibration    28          0.812              1.354              0.786
 Vibration    29          0.836              1.296              0.712
 Vibration    30          0.850              1.262              0.672
 Vibration    31          0.884              1.185              0.589
 Vibration    32          0.916              1.117              0.523
 Vibration    33          0.945              1.057              0.471
 Vibration    34          0.954              1.039              0.456

 Normal termination of Gaussian 16 at Sat Dec  7 21:51:28 2024.
